 Gaussian 16, Revision A.03,

 ---------------------------------
 # opt=CalcAll B3LYP/6-31G* scf=qc
 ---------------------------------

 -------------------
 Title Card Required
 -------------------
 Symbolic Z-matrix:
 Charge =  0 Multiplicity = 1

 SCF Done:  E(RB3LYP) =  -1075.59938333     a.u. after    8 cycles
 SCF Done:  E(RB3LYP) =  -1075.61153403     a.u. after   15 cycles
 SCF Done:  E(RB3LYP) =  -1075.61401893     a.u. after   17 cycles
 SCF Done:  E(RB3LYP) =  -1075.61533930     a.u. after   17 cycles
 SCF Done:  E(RB3LYP) =  -1075.61528251     a.u. after   17 cycles
 SCF Done:  E(RB3LYP) =  -1075.61602208     a.u. after   14 cycles
 SCF Done:  E(RB3LYP) =  -1075.61649991     a.u. after   15 cycles
 SCF Done:  E(RB3LYP) =  -1075.61653360     a.u. after   13 cycles
 SCF Done:  E(RB3LYP) =  -1075.61655072     a.u. after    9 cycles
 SCF Done:  E(RB3LYP) =  -1075.61655300     a.u. after    5 cycles
 SCF Done:  E(RB3LYP) =  -1075.61655313     a.u. after    3 cycles
 SCF Done:  E(RB3LYP) =  -1075.61655313     a.u. after    2 cycles
 SCF Done:  E(RB3LYP) =  -1075.61655313     a.u. after    2 cycles
 Optimization completed.
    -- Stationary point found.
 Normal termination of Gaussian 16 at Sat Aug 22 21:06:54 2020.

 ----------------------------------------------------------------------
 # freq B3LYP/6-31G* scf=qc volume NMR pop=NPA density=current Geom=All
 Check Guess=Read
 ----------------------------------------------------------------------

 Structure from the checkpoint file:  "phosphine_10_conf222.chk"
 -------------------
 Title Card Required
 -------------------
 Charge =  0 Multiplicity = 1

 SCF Done:  E(RB3LYP) =  -1075.61655313     a.u. after    1 cycles

      1  C    Isotropic =   167.7458   Anisotropy =    35.1333

      2  C    Isotropic =    57.9714   Anisotropy =   180.9619

      3  C    Isotropic =    67.5472   Anisotropy =   146.6993

      4  C    Isotropic =    62.1251   Anisotropy =   171.0435

      5  C    Isotropic =    59.3337   Anisotropy =   175.8037

      6  C    Isotropic =    60.6903   Anisotropy =   160.9527

      7  C    Isotropic =    67.6910   Anisotropy =   148.9653

      8  P    Isotropic =   362.7089   Anisotropy =    38.8365

      9  C    Isotropic =    55.6505   Anisotropy =   180.0634

     10  C    Isotropic =    62.6941   Anisotropy =   173.7840

     11  C    Isotropic =    68.7483   Anisotropy =   163.7353

     12  C    Isotropic =    68.3375   Anisotropy =   167.0545

     13  C    Isotropic =    68.7799   Anisotropy =   163.9922

     14  C    Isotropic =    61.1358   Anisotropy =   164.0970

     15  C    Isotropic =    56.0158   Anisotropy =   179.6710

     16  C    Isotropic =    61.1417   Anisotropy =   164.2476

     17  C    Isotropic =    68.7869   Anisotropy =   163.9372

     18  C    Isotropic =    68.2855   Anisotropy =   166.9951

     19  C    Isotropic =    68.7452   Anisotropy =   163.7077

     20  C    Isotropic =    62.7768   Anisotropy =   174.1731

     21  H    Isotropic =    30.1941   Anisotropy =     7.2070

     22  H    Isotropic =    30.0274   Anisotropy =     7.6709

     23  H    Isotropic =    29.7522   Anisotropy =     8.6537

     24  H    Isotropic =    25.2207   Anisotropy =     7.8204

     25  H    Isotropic =    25.4522   Anisotropy =    12.2712

     26  H    Isotropic =    24.6766   Anisotropy =     9.0747

     27  H    Isotropic =    25.0762   Anisotropy =     6.4391

     28  H    Isotropic =    25.4316   Anisotropy =    12.2143

     29  H    Isotropic =    25.0651   Anisotropy =     6.0857

     30  H    Isotropic =    25.0373   Anisotropy =     3.6113

     31  H    Isotropic =    24.9409   Anisotropy =     4.5908

     32  H    Isotropic =    24.6285   Anisotropy =     9.2981

     33  H    Isotropic =    24.6319   Anisotropy =     9.3135

     34  H    Isotropic =    24.9397   Anisotropy =     4.5743

     35  H    Isotropic =    25.0338   Anisotropy =     3.6537

     36  H    Isotropic =    25.0564   Anisotropy =     6.1747

     37  H    Isotropic =    25.4019   Anisotropy =    12.1799

  Exact polarizability: 251.224  -0.917 231.632   1.194  -1.111 174.236
 Approx polarizability: 354.232  -0.848 342.637   1.267  -1.183 322.785

                      1                      2                      3
                      A                      A                      A
 Frequencies --     22.5305                23.4280                35.2689
 Red. masses --      3.6867                 2.9089                 1.3385
 Frc consts  --      0.0011                 0.0009                 0.0010
 IR Inten    --      0.3068                 0.2566                 0.1504

                      4                      5                      6
                      A                      A                      A
 Frequencies --     41.6062                43.0845                52.1147
 Red. masses --      2.5235                 4.0484                 5.1157
 Frc consts  --      0.0026                 0.0044                 0.0082
 IR Inten    --      0.0753                 0.2227                 0.0732

                      7                      8                      9
                      A                      A                      A
 Frequencies --     64.0653               138.2624               178.0837
 Red. masses --      4.9808                 4.2655                 4.5056
 Frc consts  --      0.0120                 0.0480                 0.0842
 IR Inten    --      0.3254                 0.6277                 0.4470

                     10                     11                     12
                      A                      A                      A
 Frequencies --    199.4206               230.3965               237.3539
 Red. masses --      4.6409                 5.1877                 4.4820
 Frc consts  --      0.1087                 0.1622                 0.1488
 IR Inten    --      1.0554                 0.4430                 0.4738

                     13                     14                     15
                      A                      A                      A
 Frequencies --    255.6479               309.0018               355.5812
 Red. masses --      4.9014                 4.5873                 2.9361
 Frc consts  --      0.1887                 0.2581                 0.2187
 IR Inten    --      0.2009                 0.6970                 0.7237

                     16                     17                     18
                      A                      A                      A
 Frequencies --    405.9949               409.3219               413.2195
 Red. masses --      4.4256                 3.0353                 3.2175
 Frc consts  --      0.4298                 0.2996                 0.3237
 IR Inten    --      7.2832                 1.4486                 0.3469

                     19                     20                     21
                      A                      A                      A
 Frequencies --    417.7950               424.3666               439.2310
 Red. masses --      3.7704                 5.6451                 7.5068
 Frc consts  --      0.3878                 0.5990                 0.8533
 IR Inten    --      2.1892                 1.8075                 8.2678

                     22                     23                     24
                      A                      A                      A
 Frequencies --    506.6215               514.9191               524.3952
 Red. masses --      4.0451                 4.3388                 3.1874
 Frc consts  --      0.6117                 0.6778                 0.5164
 IR Inten    --     20.8200                18.4795                21.7578

                     25                     26                     27
                      A                      A                      A
 Frequencies --    621.6373               632.9165               634.2984
 Red. masses --      5.6279                 6.4278                 6.3805
 Frc consts  --      1.2814                 1.5171                 1.5125
 IR Inten    --      9.5552                 0.1571                 1.7388

                     28                     29                     30
                      A                      A                      A
 Frequencies --    654.1317               697.2367               705.1448
 Red. masses --      6.9624                 6.6148                 5.9156
 Frc consts  --      1.7553                 1.8946                 1.7330
 IR Inten    --      0.0816                 1.1100                 1.7727

                     31                     32                     33
                      A                      A                      A
 Frequencies --    711.8695               712.9229               727.7473
 Red. masses --      2.1518                 2.1325                 3.8502
 Frc consts  --      0.6425                 0.6386                 1.2014
 IR Inten    --     24.8168                20.7941                 3.2407

                     34                     35                     36
                      A                      A                      A
 Frequencies --    761.8242               762.4379               813.4682
 Red. masses --      1.6351                 1.6388                 4.2165
 Frc consts  --      0.5591                 0.5613                 1.6439
 IR Inten    --     21.7468                24.5985                 1.7274

                     37                     38                     39
                      A                      A                      A
 Frequencies --    827.2700               863.0714               866.1333
 Red. masses --      1.4297                 1.2484                 1.2477
 Frc consts  --      0.5765                 0.5479                 0.5515
 IR Inten    --     18.9365                 0.2428                 0.2385

                     40                     41                     42
                      A                      A                      A
 Frequencies --    868.1467               932.5036               933.3794
 Red. masses --      1.2466                 1.3446                 1.3416
 Frc consts  --      0.5536                 0.6889                 0.6886
 IR Inten    --      0.1236                 1.2601                 0.5157

                     43                     44                     45
                      A                      A                      A
 Frequencies --    971.3793               973.8460               975.6993
 Red. masses --      1.2949                 1.3237                 1.3605
 Frc consts  --      0.7199                 0.7396                 0.7631
 IR Inten    --      0.3300                 0.3038                 0.0238

                     46                     47                     48
                      A                      A                      A
 Frequencies --    977.4404               999.9356              1000.4507
 Red. masses --      1.3440                 1.2532                 1.2522
 Frc consts  --      0.7565                 0.7382                 0.7384
 IR Inten    --      0.2038                 0.0925                 0.0274

                     49                     50                     51
                      A                      A                      A
 Frequencies --   1015.3369              1015.5703              1018.8984
 Red. masses --      6.2750                 6.2865                 1.4231
 Frc consts  --      3.8114                 3.8201                 0.8705
 IR Inten    --      4.2456                 1.6689                 0.3450

                     52                     53                     54
                      A                      A                      A
 Frequencies --   1037.3397              1052.7484              1052.9146
 Red. masses --      3.6996                 3.3152                 3.2749
 Frc consts  --      2.3456                 2.1648                 2.1391
 IR Inten    --      3.5234                 2.1789                 0.8246

                     55                     56                     57
                      A                      A                      A
 Frequencies --   1074.9826              1108.0326              1108.8710
 Red. masses --      1.5342                 1.8780                 1.9198
 Frc consts  --      1.0446                 1.3585                 1.3908
 IR Inten    --     15.9402                 3.8277                 5.5242

                     58                     59                     60
                      A                      A                      A
 Frequencies --   1110.1985              1110.6980              1116.0840
 Red. masses --      2.5268                 2.2293                 2.8595
 Frc consts  --      1.8349                 1.6204                 2.0986
 IR Inten    --     11.3007                 9.3424                 1.1594

                     61                     62                     63
                      A                      A                      A
 Frequencies --   1150.4895              1193.5049              1193.7796
 Red. masses --      1.3572                 1.1021                 1.0999
 Frc consts  --      1.0584                 0.9249                 0.9235
 IR Inten    --      1.7448                 0.0485                 0.1304

                     64                     65                     66
                      A                      A                      A
 Frequencies --   1219.3147              1220.4036              1226.1160
 Red. masses --      1.1477                 1.1477                 1.1413
 Frc consts  --      1.0053                 1.0071                 1.0109
 IR Inten    --      5.9211                 3.9969                 7.5472

                     67                     68                     69
                      A                      A                      A
 Frequencies --   1241.7956              1324.4708              1327.9747
 Red. masses --      2.9473                 3.8994                 3.9279
 Frc consts  --      2.6777                 4.0302                 4.0813
 IR Inten    --      1.8779                 2.9419                 2.8156

                     70                     71                     72
                      A                      A                      A
 Frequencies --   1328.8320              1352.7301              1365.2490
 Red. masses --      3.5049                 1.5068                 1.6558
 Frc consts  --      3.6464                 1.6246                 1.8183
 IR Inten    --      2.5948                 0.4303                 0.5066

                     73                     74                     75
                      A                      A                      A
 Frequencies --   1365.7091              1441.9849              1442.4909
 Red. masses --      1.6395                 2.3256                 1.2884
 Frc consts  --      1.8017                 2.8490                 1.5795
 IR Inten    --      1.6589                 5.4549                 0.6770

                     76                     77                     78
                      A                      A                      A
 Frequencies --   1480.5531              1480.9839              1517.5427
 Red. masses --      2.1126                 2.1167                 1.0535
 Frc consts  --      2.7285                 2.7353                 1.4294
 IR Inten    --     12.8953                 6.9616                 5.8345

                     79                     80                     81
                      A                      A                      A
 Frequencies --   1519.8248              1531.3052              1531.6319
 Red. masses --      1.0947                 2.0065                 1.9978
 Frc consts  --      1.4898                 2.7721                 2.7613
 IR Inten    --      8.5553                 5.0685                10.4793

                     82                     83                     84
                      A                      A                      A
 Frequencies --   1547.1789              1614.0619              1630.2135
 Red. masses --      2.2407                 5.1522                 5.1027
 Frc consts  --      3.1602                 7.9084                 7.9898
 IR Inten    --     13.5457                 0.2754                 0.2794

                     85                     86                     87
                      A                      A                      A
 Frequencies --   1630.4668              1646.1838              1647.3505
 Red. masses --      5.1151                 5.2707                 5.2780
 Frc consts  --      8.0118                 8.4155                 8.4391
 IR Inten    --      0.1389                 3.8383                 1.4346

                     88                     89                     90
                      A                      A                      A
 Frequencies --   1659.4063              3040.3538              3097.1211
 Red. masses --      5.5389                 1.0406                 1.0955
 Frc consts  --      8.9863                 5.6674                 6.1915
 IR Inten    --      5.8344                37.8211                20.2095

                     91                     92                     93
                      A                      A                      A
 Frequencies --   3124.2023              3171.1804              3173.9390
 Red. masses --      1.1027                 1.0868                 1.0885
 Frc consts  --      6.3414                 6.4392                 6.4609
 IR Inten    --     15.7298                11.7037                18.8257

                     94                     95                     96
                      A                      A                      A
 Frequencies --   3175.5913              3175.6442              3182.1371
 Red. masses --      1.0853                 1.0853                 1.0875
 Frc consts  --      6.4486                 6.4486                 6.4881
 IR Inten    --      2.2062                 2.2299                 0.7006

                     97                     98                     99
                      A                      A                      A
 Frequencies --   3182.2274              3188.5874              3192.4148
 Red. masses --      1.0875                 1.0941                 1.0917
 Frc consts  --      6.4887                 6.5539                 6.5550
 IR Inten    --      0.4752                23.1190                10.7954

                    100                    101                    102
                      A                      A                      A
 Frequencies --   3192.4972              3203.6193              3203.8582
 Red. masses --      1.0917                 1.0942                 1.0942
 Frc consts  --      6.5558                 6.6166                 6.6175
 IR Inten    --     36.0194                42.1255                17.2429

                    103                    104                    105
                      A                      A                      A
 Frequencies --   3205.5028              3209.8569              3210.4847
 Red. masses --      1.0921                 1.0955                 1.0955
 Frc consts  --      6.6113                 6.6502                 6.6526
 IR Inten    --      6.5071                19.2123                18.0148

 - Thermochemistry -
 -------------------
 Temperature   298.150 Kelvin.  Pressure   1.00000 Atm.
 Atom     1 has atomic number  6 and mass  12.00000

 Molecular mass:   276.10679 amu.
 Principal axes and moments of inertia in atomic units:
                           1         2         3
     Eigenvalues --  5217.242996874.39522**********
           X            1.00000   0.00020  -0.00284
           Y           -0.00020   1.00000  -0.00013
           Z            0.00284   0.00013   1.00000
 This molecule is an asymmetric top.
 Rotational symmetry number  1.
 Warning -- assumption of classical behavior for rotation
           may cause significant error
 Rotational temperatures (Kelvin)      0.01660     0.01260     0.00839
 Rotational constants (GHZ):           0.34592     0.26253     0.17473
 Zero-point vibrational energy     792221.2 (Joules/Mol)
                                  189.34541 (Kcal/Mol)
 Warning -- explicit consideration of  24 degrees of freedom as
           vibrations may cause significant error
 Vibrational temperatures:     32.42    33.71    50.74    59.86    61.99
          (Kelvin)             74.98    92.18   198.93   256.22   286.92
                              331.49   341.50   367.82   444.58   511.60
                              584.14   588.92   594.53   601.11   610.57
                              631.96   728.92   740.85   754.49   894.40
                              910.63   912.61   941.15  1003.17  1014.55
                             1024.22  1025.74  1047.07  1096.10  1096.98
                             1170.40  1190.26  1241.77  1246.17  1249.07
                             1341.66  1342.92  1397.60  1401.15  1403.81
                             1406.32  1438.68  1439.43  1460.84  1461.18
                             1465.97  1492.50  1514.67  1514.91  1546.66
                             1594.21  1595.42  1597.33  1598.05  1605.80
                             1655.30  1717.19  1717.58  1754.32  1755.89
                             1764.11  1786.67  1905.62  1910.66  1911.89
                             1946.28  1964.29  1964.95  2074.69  2075.42
                             2130.19  2130.81  2183.41  2186.69  2203.21
                             2203.68  2226.05  2322.28  2345.51  2345.88
                             2368.49  2370.17  2387.52  4374.39  4456.07
                             4495.03  4562.62  4566.59  4568.97  4569.04
                             4578.39  4578.52  4587.67  4593.17  4593.29
                             4609.29  4609.64  4612.00  4618.27  4619.17

 Zero-point correction=                           0.301741 (Hartree/Particle)
 Thermal correction to Energy=                    0.319563
 Thermal correction to Enthalpy=                  0.320507
 Thermal correction to Gibbs Free Energy=         0.252220
 Sum of electronic and zero-point Energies=          -1075.314812
 Sum of electronic and thermal Energies=             -1075.296990
 Sum of electronic and thermal Enthalpies=           -1075.296046
 Sum of electronic and thermal Free Energies=        -1075.364333

                     E (Thermal)             CV                S
                      KCal/Mol        Cal/Mol-Kelvin    Cal/Mol-Kelvin
 Total                  200.529             68.558            143.723
 Electronic               0.000              0.000              0.000
 Translational            0.889              2.981             42.745
 Rotational               0.889              2.981             34.270
 Vibrational            198.751             62.596             66.707
 Vibration     1          0.593              1.985              6.398
 Vibration     2          0.593              1.985              6.320
 Vibration     3          0.594              1.982              5.509
 Vibration     4          0.594              1.981              5.181
 Vibration     5          0.595              1.980              5.112
 Vibration     6          0.596              1.977              4.735
 Vibration     7          0.597              1.971              4.328
 Vibration     8          0.614              1.915              2.828
 Vibration     9          0.629              1.869              2.348
 Vibration    10          0.638              1.841              2.138
 Vibration    11          0.652              1.795              1.876
 Vibration    12          0.656              1.783              1.823
 Vibration    13          0.666              1.753              1.691
 Vibration    14          0.698              1.657              1.368
 Vibration    15          0.731              1.564              1.141
 Vibration    16          0.771              1.457              0.941
 Vibration    17          0.774              1.450              0.929
 Vibration    18          0.777              1.442              0.915
 Vibration    19          0.781              1.432              0.899
 Vibration    20          0.786              1.417              0.877
 Vibration    21          0.799              1.385              0.829
 Vibration    22          0.862              1.235              0.642
 Vibration    23          0.870              1.217              0.622
 Vibration    24          0.879              1.196              0.600

 Optimization completed.
    -- Stationary point found.
 Normal termination of Gaussian 16 at Sat Aug 22 21:18:06 2020.
 Gaussian 16:  ES64L-G16RevA.03 25-Dec-2016

 ----------------------------------------------------------------------
 # TD(NStates=10, Root=1) B3LYP/6-31G* scf=qc volume pop=NPA density=cu
 rrent Geom=AllCheck Guess=Read
 ----------------------------------------------------------------------

 Structure from the checkpoint file:  "phosphine_10_conf223.chk"
 -------------------
 Title Card Required
 -------------------
 Charge =  0 Multiplicity = 1

                         Standard orientation:
 ---------------------------------------------------------------------
 Center     Atomic      Atomic             Coordinates (Angstroms)
 Number     Number       Type             X           Y           Z
 ---------------------------------------------------------------------
      1          6           0       -5.452586   -0.036142    0.752220
      2          6           0       -4.009721   -0.033345    0.304799
      3          6           0       -3.034002    0.680089    1.011980
      4          6           0       -1.705544    0.708775    0.585765
      5          6           0       -1.308183    0.020882   -0.570102
      6          6           0       -2.288350   -0.686716   -1.285477
      7          6           0       -3.611136   -0.721145   -0.849469
      8         15           0        0.413729    0.000978   -1.251191
      9          6           0        1.203726    1.438708   -0.386341
     10          6           0        1.912098    1.351343    0.821787
     11          6           0        2.495386    2.487034    1.388247
     12          6           0        2.376423    3.727397    0.759613
     13          6           0        1.676356    3.827446   -0.444667
     14          6           0        1.103996    2.691164   -1.015785
     15          6           0        1.178686   -1.453938   -0.392820
     16          6           0        2.377593   -1.950971   -0.931793
     17          6           0        3.018223   -3.050279   -0.360737
     18          6           0        2.459545   -3.685111    0.750678
     19          6           0        1.261594   -3.210815    1.287226
     20          6           0        0.626454   -2.102648    0.722082
     21          1           0       -5.539175    0.147389    1.828336
     22          1           0       -5.939904   -0.991905    0.530519
     23          1           0       -6.028727    0.746886    0.240994
     24          1           0       -3.316581    1.221414    1.912706
     25          1           0       -0.974818    1.272419    1.158298
     26          1           0       -2.011795   -1.215985   -2.194691
     27          1           0       -4.348230   -1.283335   -1.419172
     28          1           0        2.012389    0.392131    1.320714
     29          1           0        3.042858    2.400852    2.323586
     30          1           0        2.831902    4.609756    1.201546
     31          1           0        1.585215    4.788206   -0.944889
     32          1           0        0.576984    2.773860   -1.963718
     33          1           0        2.808785   -1.474147   -1.809242
     34          1           0        3.947017   -3.417630   -0.789659
     35          1           0        2.951678   -4.548205    1.191362
     36          1           0        0.818514   -3.703086    2.149419
     37          1           0       -0.305392   -1.743645    1.148524
 ---------------------------------------------------------------------

 SCF Done:  E(RB3LYP) =  -1075.61655313     a.u. after    1 cycles

 Excitation energies and oscillator strengths:

 Excited State   1:      Singlet-A      4.4884 eV  276.23 nm  f=0.1266  <S**2>=0.000
      73 -> 74         0.68946
      73 -> 75        -0.10543
 This state for optimization and/or second-order correction.
 Total Energy, E(TD-HF/TD-DFT) =  -1075.45160653
 Copying the excited state density for this state as the 1-particle RhoCI density.

 Excited State   2:      Singlet-A      4.5024 eV  275.37 nm  f=0.1586  <S**2>=0.000
      73 -> 74         0.10490
      73 -> 75         0.68816

 Excited State   3:      Singlet-A      4.7317 eV  262.03 nm  f=0.0033  <S**2>=0.000
      71 -> 75         0.11803
      73 -> 76         0.67532

 Excited State   4:      Singlet-A      5.0194 eV  247.01 nm  f=0.0002  <S**2>=0.000
      69 -> 75         0.15957
      70 -> 74         0.10388
      71 -> 75         0.15583
      73 -> 77        -0.19834
      73 -> 78         0.58985
      73 -> 79        -0.10812

 Excited State   5:      Singlet-A      5.0387 eV  246.07 nm  f=0.0003  <S**2>=0.000
      69 -> 74         0.16371
      70 -> 75         0.11184
      71 -> 74        -0.11968
      73 -> 78         0.14157
      73 -> 79         0.61765

 Excited State   6:      Singlet-A      5.1379 eV  241.31 nm  f=0.0090  <S**2>=0.000
      72 -> 75         0.11553
      73 -> 77         0.64114
      73 -> 78         0.18074
      73 -> 79        -0.11646

 Excited State   7:      Singlet-A      5.3912 eV  229.97 nm  f=0.0106  <S**2>=0.000
      67 -> 76        -0.13812
      68 -> 79         0.12443
      70 -> 78         0.11364
      71 -> 74         0.11654
      71 -> 75         0.37832
      72 -> 74         0.45182
      72 -> 78         0.16076
      73 -> 76        -0.14854

 Excited State   8:      Singlet-A      5.4727 eV  226.55 nm  f=0.0008  <S**2>=0.000
      67 -> 78        -0.11770
      68 -> 75         0.11555
      68 -> 79        -0.11232
      69 -> 75         0.21774
      70 -> 74         0.20051
      70 -> 76         0.17993
      71 -> 75         0.18656
      72 -> 74        -0.24800
      72 -> 76         0.30979
      72 -> 78         0.12451
      73 -> 78        -0.27136

 Excited State   9:      Singlet-A      5.5079 eV  225.10 nm  f=0.0004  <S**2>=0.000
      67 -> 79        -0.15990
      68 -> 74        -0.11788
      68 -> 76         0.28843
      68 -> 78        -0.10086
      69 -> 74         0.22244
      70 -> 75         0.23002
      71 -> 74        -0.26166
      71 -> 76        -0.15721
      72 -> 75        -0.19218
      72 -> 79        -0.10180
      73 -> 79        -0.27134

 Excited State  10:      Singlet-A      5.5959 eV  221.56 nm  f=0.0289  <S**2>=0.000
      67 -> 76         0.11841
      68 -> 79        -0.12484
      69 -> 75         0.12536
      70 -> 74         0.39117
      70 -> 75        -0.13662
      71 -> 74        -0.18737
      71 -> 75        -0.19466
      72 -> 74         0.37712
      72 -> 78        -0.12945

 The electronic state is 1-A.
 Alpha  occ. eigenvalues --  -77.07948 -10.19773 -10.19316 -10.19302 -10.19070
 Alpha  occ. eigenvalues --  -10.19034 -10.19026 -10.18997 -10.18989 -10.18917
 Alpha  occ. eigenvalues --  -10.18912 -10.18905 -10.18897 -10.18892 -10.18833
 Alpha  occ. eigenvalues --  -10.18833 -10.18775 -10.18561 -10.18553 -10.18475
 Alpha  occ. eigenvalues --   -6.54674  -4.70935  -4.70932  -4.70433  -0.85538
 Alpha  occ. eigenvalues --   -0.84932  -0.84723  -0.77633  -0.75297  -0.74227
 Alpha  occ. eigenvalues --   -0.74180  -0.74073  -0.73692  -0.68847  -0.63430
 Alpha  occ. eigenvalues --   -0.60390  -0.60194  -0.60053  -0.59113  -0.58030
 Alpha  occ. eigenvalues --   -0.55276  -0.51321  -0.50558  -0.47949  -0.45993
 Alpha  occ. eigenvalues --   -0.45196  -0.45021  -0.44439  -0.44216  -0.43860
 Alpha  occ. eigenvalues --   -0.41967  -0.41778  -0.41721  -0.41517  -0.40311
 Alpha  occ. eigenvalues --   -0.39426  -0.38516  -0.36528  -0.36177  -0.35829
 Alpha  occ. eigenvalues --   -0.35178  -0.34114  -0.34084  -0.33603  -0.31728
 Alpha  occ. eigenvalues --   -0.31688  -0.26505  -0.25314  -0.25096  -0.24904
 Alpha  occ. eigenvalues --   -0.24539  -0.24338  -0.20884
 Alpha virt. eigenvalues --   -0.01731  -0.01697  -0.00694   0.00328   0.00536
 Alpha virt. eigenvalues --    0.00563   0.07020   0.07063   0.09619   0.11028
 Alpha virt. eigenvalues --    0.11122   0.12821   0.13615   0.14027   0.14585

 Mulliken charges:
               1
     1  C   -0.532754
     2  C    0.180229
     3  C   -0.167971
     4  C   -0.146650
     5  C   -0.080202
     6  C   -0.155423
     7  C   -0.166075
     8  P    0.442251
     9  C   -0.123500
    10  C   -0.163530
    11  C   -0.122840
    12  C   -0.155472
    13  C   -0.118561
    14  C   -0.175274
    15  C   -0.116850
    16  C   -0.162201
    17  C   -0.125094
    18  C   -0.161064
    19  C   -0.116507
    20  C   -0.173628
    21  H    0.166674
    22  H    0.168318
    23  H    0.178209
    24  H    0.140237
    25  H    0.174289
    26  H    0.150177
    27  H    0.136260
    28  H    0.149823
    29  H    0.124559
    30  H    0.117122
    31  H    0.119515
    32  H    0.119401
    33  H    0.122236
    34  H    0.118181
    35  H    0.112895
    36  H    0.119804
    37  H    0.123417
 Sum of Mulliken charges =  -0.00000

 Dipole moment (field-independent basis, Debye):
    X=             -4.6636    Y=              0.4954    Z=             -0.2941  Tot=              4.6991
 Quadrupole moment (field-independent basis, Debye-Ang):
   XX=           -110.6338   YY=           -127.8305   ZZ=           -117.4761
   XY=              0.7746   XZ=             -1.1819   YZ=              0.6838

 Summary of Natural Population Analysis:

                                       Natural Population
                Natural  -----------------------------------------------
    Atom  No    Charge         Core      Valence    Rydberg      Total
 -----------------------------------------------------------------------
      C    1   -0.69524      1.99939     4.68836    0.00749     6.69524
      C    2    0.01011      1.99903     3.97689    0.01397     5.98989
      C    3   -0.22602      1.99902     4.21399    0.01302     6.22602
      C    4   -0.19982      1.99900     4.18451    0.01632     6.19982
      C    5   -0.37636      1.99890     4.35293    0.02452     6.37636
      C    6   -0.19479      1.99902     4.18041    0.01535     6.19479
      C    7   -0.23247      1.99902     4.22021    0.01324     6.23247
      P    8    1.22866      9.99753     3.72346    0.05035    13.77134
      C    9   -0.46344      1.99888     4.43820    0.02636     6.46344
      C   10   -0.23396      1.99899     4.21753    0.01743     6.23396
      C   11   -0.23655      1.99909     4.22286    0.01460     6.23655
      C   12   -0.26999      1.99909     4.25494    0.01596     6.26999
      C   13   -0.23676      1.99910     4.22306    0.01460     6.23676
      C   14   -0.23591      1.99902     4.22073    0.01616     6.23591
      C   15   -0.45639      1.99886     4.43293    0.02460     6.45639
      C   16   -0.21897      1.99901     4.20397    0.01599     6.21897
      C   17   -0.24820      1.99910     4.23404    0.01507     6.24820
      C   18   -0.28195      1.99909     4.26663    0.01623     6.28195
      C   19   -0.22617      1.99909     4.21269    0.01439     6.22617
      C   20   -0.26136      1.99899     4.24465    0.01772     6.26136
      H   21    0.24458      0.00000     0.75460    0.00082     0.75542
      H   22    0.24629      0.00000     0.75290    0.00081     0.75371
      H   23    0.25351      0.00000     0.74565    0.00085     0.74649
      H   24    0.24248      0.00000     0.75650    0.00102     0.75752
      H   25    0.26141      0.00000     0.73738    0.00121     0.73859
      H   26    0.24375      0.00000     0.75507    0.00118     0.75625
      H   27    0.24008      0.00000     0.75887    0.00105     0.75992
      H   28    0.24656      0.00000     0.75190    0.00154     0.75344
      H   29    0.23526      0.00000     0.76385    0.00090     0.76474
      H   30    0.22944      0.00000     0.76965    0.00091     0.77056
      H   31    0.23188      0.00000     0.76716    0.00096     0.76812
      H   32    0.22616      0.00000     0.77285    0.00099     0.77384
      H   33    0.22919      0.00000     0.76966    0.00115     0.77081
      H   34    0.23200      0.00000     0.76711    0.00089     0.76800
      H   35    0.22774      0.00000     0.77136    0.00089     0.77226
      H   36    0.23296      0.00000     0.76615    0.00089     0.76704
      H   37    0.23229      0.00000     0.76633    0.00138     0.76771
 =======================================================================
   * Total *   -0.00000     47.97921    97.63998    0.38081   146.00000

 Normal termination of Gaussian 16 at Sat Aug 22 21:28:59 2020.
