 Gaussian 16, Revision A.03,

 ---------------------------------
 # opt=CalcAll B3LYP/6-31G* scf=qc
 ---------------------------------

 -------------------
 Title Card Required
 -------------------
 Symbolic Z-matrix:
 Charge =  0 Multiplicity = 1

 SCF Done:  E(RB3LYP) =  -1333.93428517     a.u. after    7 cycles
 SCF Done:  E(RB3LYP) =  -1333.96555333     a.u. after   17 cycles
 SCF Done:  E(RB3LYP) =  -1333.97765012     a.u. after   17 cycles
 SCF Done:  E(RB3LYP) =  -1333.99504024     a.u. after   17 cycles
 SCF Done:  E(RB3LYP) =  -1333.99788980     a.u. after   15 cycles
 SCF Done:  E(RB3LYP) =  -1333.99859987     a.u. after   13 cycles
 SCF Done:  E(RB3LYP) =  -1333.99884016     a.u. after   15 cycles
 SCF Done:  E(RB3LYP) =  -1333.99894282     a.u. after   13 cycles
 SCF Done:  E(RB3LYP) =  -1333.99891305     a.u. after   11 cycles
 SCF Done:  E(RB3LYP) =  -1333.99897320     a.u. after   13 cycles
 SCF Done:  E(RB3LYP) =  -1333.99894709     a.u. after   11 cycles
 SCF Done:  E(RB3LYP) =  -1333.99897549     a.u. after   11 cycles
 SCF Done:  E(RB3LYP) =  -1333.99897540     a.u. after    3 cycles
 SCF Done:  E(RB3LYP) =  -1333.99898171     a.u. after    2 cycles
 SCF Done:  E(RB3LYP) =  -1333.99898017     a.u. after    2 cycles
 SCF Done:  E(RB3LYP) =  -1333.99897524     a.u. after    3 cycles
 SCF Done:  E(RB3LYP) =  -1333.99897438     a.u. after    2 cycles
 Optimization completed.
    -- Stationary point found.
 Normal termination of Gaussian 16 at Sun Aug 23 14:45:41 2020.

 ----------------------------------------------------------------------
 # freq B3LYP/6-31G* scf=qc volume NMR pop=NPA density=current Geom=All
 Check Guess=Read
 ----------------------------------------------------------------------

 Structure from the checkpoint file:  "phosphine_5_conf122.chk"
 -------------------
 Title Card Required
 -------------------
 Charge =  0 Multiplicity = 1

 SCF Done:  E(RB3LYP) =  -1333.99897438     a.u. after    1 cycles

      1  C    Isotropic =    80.0724   Anisotropy =   136.7212

      2  C    Isotropic =    60.7381   Anisotropy =   171.8882

      3  C    Isotropic =    61.6416   Anisotropy =   173.4643

      4  C    Isotropic =    59.0490   Anisotropy =   162.8269

      5  C    Isotropic =    79.9241   Anisotropy =   137.4335

      6  C    Isotropic =    32.6677   Anisotropy =    98.8129

      7  F    Isotropic =   295.8181   Anisotropy =   113.0380

      8  P    Isotropic =   366.1150   Anisotropy =    39.7668

      9  C    Isotropic =    61.6563   Anisotropy =   173.5334

     10  C    Isotropic =    60.6781   Anisotropy =   171.9777

     11  C    Isotropic =    80.0709   Anisotropy =   136.7677

     12  C    Isotropic =    32.6526   Anisotropy =    98.8345

     13  C    Isotropic =    79.9473   Anisotropy =   137.4373

     14  C    Isotropic =    58.9949   Anisotropy =   162.7235

     15  F    Isotropic =   295.7322   Anisotropy =   113.0443

     16  C    Isotropic =    61.5479   Anisotropy =   173.5210

     17  C    Isotropic =    59.0553   Anisotropy =   162.7974

     18  C    Isotropic =    79.9250   Anisotropy =   137.4298

     19  C    Isotropic =    32.6776   Anisotropy =    98.8115

     20  C    Isotropic =    80.0713   Anisotropy =   136.7075

     21  C    Isotropic =    60.7317   Anisotropy =   171.7928

     22  F    Isotropic =   295.8304   Anisotropy =   113.0118

     23  H    Isotropic =    25.4681   Anisotropy =     5.7354

     24  H    Isotropic =    25.3650   Anisotropy =    12.0305

     25  H    Isotropic =    24.6208   Anisotropy =     8.9297

     26  H    Isotropic =    25.3566   Anisotropy =     4.2621

     27  H    Isotropic =    25.3534   Anisotropy =    11.9980

     28  H    Isotropic =    25.4629   Anisotropy =     5.7358

     29  H    Isotropic =    25.3605   Anisotropy =     4.2501

     30  H    Isotropic =    24.6150   Anisotropy =     8.9049

     31  H    Isotropic =    24.6216   Anisotropy =     8.9301

     32  H    Isotropic =    25.3601   Anisotropy =     4.2597

     33  H    Isotropic =    25.4662   Anisotropy =     5.7385

     34  H    Isotropic =    25.3687   Anisotropy =    12.0251

  Exact polarizability: 226.315  -0.123 225.988  -0.176  -0.045 167.767
 Approx polarizability: 338.082  -0.269 337.420  -0.395  -0.100 314.957

                      1                      2                      3
                      A                      A                      A
 Frequencies --     23.3167                23.5992                37.3551
 Red. masses --      4.0652                 4.0735                 8.9856
 Frc consts  --      0.0013                 0.0013                 0.0074
 IR Inten    --      0.2573                 0.2488                 0.0935

                      4                      5                      6
                      A                      A                      A
 Frequencies --     37.5250                40.1757                50.6163
 Red. masses --      8.9346                 3.7672                 9.9477
 Frc consts  --      0.0074                 0.0036                 0.0150
 IR Inten    --      0.0973                 0.0073                 0.1142

                      7                      8                      9
                      A                      A                      A
 Frequencies --    132.9459               145.4388               145.7977
 Red. masses --      8.0537                 8.3731                 8.3727
 Frc consts  --      0.0839                 0.1044                 0.1049
 IR Inten    --      0.0232                 0.5199                 0.5162

                     10                     11                     12
                      A                      A                      A
 Frequencies --    209.0066               218.9993               219.3914
 Red. masses --      8.0489                 6.9897                 6.9900
 Frc consts  --      0.2072                 0.1975                 0.1982
 IR Inten    --      0.2899                 0.5371                 0.5208

                     13                     14                     15
                      A                      A                      A
 Frequencies --    307.9109               335.9431               336.1193
 Red. masses --      8.4313                 8.3077                 8.3139
 Frc consts  --      0.4710                 0.5524                 0.5534
 IR Inten    --      1.0321                 0.0437                 0.0441

                     16                     17                     18
                      A                      A                      A
 Frequencies --    397.1309               404.0794               404.2019
 Red. masses --      7.7439                 8.0466                 7.9919
 Frc consts  --      0.7196                 0.7741                 0.7693
 IR Inten    --      0.3020                10.0365                10.1683

                     19                     20                     21
                      A                      A                      A
 Frequencies --    420.6486               420.7248               424.7239
 Red. masses --      3.2848                 3.2763                 3.1352
 Frc consts  --      0.3425                 0.3417                 0.3332
 IR Inten    --      1.0682                 1.1567                 0.0243

                     22                     23                     24
                      A                      A                      A
 Frequencies --    435.0719               435.1548               463.5675
 Red. masses --      6.1521                 6.1457                 6.6443
 Frc consts  --      0.6861                 0.6857                 0.8412
 IR Inten    --     18.9665                19.0229                 7.3995

                     25                     26                     27
                      A                      A                      A
 Frequencies --    532.9497               533.1368               535.4972
 Red. masses --      2.8117                 2.8108                 2.9074
 Frc consts  --      0.4705                 0.4707                 0.4912
 IR Inten    --     21.8414                21.9622                13.4566

                     28                     29                     30
                      A                      A                      A
 Frequencies --    608.0535               629.9929               630.0639
 Red. masses --      7.9088                 7.8289                 7.8296
 Frc consts  --      1.7228                 1.8307                 1.8313
 IR Inten    --      0.0094                 0.0379                 0.0380

                     31                     32                     33
                      A                      A                      A
 Frequencies --    648.2376               648.3866               648.4464
 Red. masses --      7.2769                 7.3782                 7.3823
 Frc consts  --      1.8016                 1.8275                 1.8289
 IR Inten    --      0.0049                 0.1272                 0.1308

                     34                     35                     36
                      A                      A                      A
 Frequencies --    715.1295               715.5785               715.7208
 Red. masses --      4.8097                 4.8245                 4.8282
 Frc consts  --      1.4492                 1.4555                 1.4572
 IR Inten    --      0.9929                 3.9511                 4.0092

                     37                     38                     39
                      A                      A                      A
 Frequencies --    835.7081               835.8119               836.8534
 Red. masses --      1.2642                 1.2625                 1.3264
 Frc consts  --      0.5202                 0.5196                 0.5473
 IR Inten    --      0.5361                 0.5817                11.2305

                     40                     41                     42
                      A                      A                      A
 Frequencies --    839.5107               839.5639               839.8104
 Red. masses --      3.2345                 3.2775                 4.0408
 Frc consts  --      1.3431                 1.3611                 1.6791
 IR Inten    --     62.3920                61.9767                17.6416

                     43                     44                     45
                      A                      A                      A
 Frequencies --    843.7013               843.7259               844.0616
 Red. masses --      1.9959                 1.9873                 1.6719
 Frc consts  --      0.8371                 0.8335                 0.7018
 IR Inten    --      9.9156                10.0242                12.3026

                     46                     47                     48
                      A                      A                      A
 Frequencies --    958.6177               958.7029               959.8752
 Red. masses --      1.2562                 1.2560                 1.2585
 Frc consts  --      0.6801                 0.6801                 0.6832
 IR Inten    --      0.1692                 0.1716                 0.3304

                     49                     50                     51
                      A                      A                      A
 Frequencies --    969.8604               969.9670               973.4327
 Red. masses --      1.3354                 1.3355                 1.3196
 Frc consts  --      0.7401                 0.7403                 0.7367
 IR Inten    --      0.0373                 0.0325                 0.3097

                     52                     53                     54
                      A                      A                      A
 Frequencies --   1034.7031              1034.7963              1035.1790
 Red. masses --      3.0264                 3.0312                 3.0241
 Frc consts  --      1.9090                 1.9124                 1.9093
 IR Inten    --      7.9877                 7.8579                 0.1469

                     55                     56                     57
                      A                      A                      A
 Frequencies --   1102.8717              1103.1046              1108.7866
 Red. masses --      3.6692                 3.6654                 3.5540
 Frc consts  --      2.6295                 2.6279                 2.5743
 IR Inten    --     19.1715                19.2856                 1.9018

                     58                     59                     60
                      A                      A                      A
 Frequencies --   1127.5794              1127.6764              1127.8990
 Red. masses --      1.3304                 1.3305                 1.3290
 Frc consts  --      0.9966                 0.9968                 0.9961
 IR Inten    --      0.8647                 0.8785                 7.3052

                     61                     62                     63
                      A                      A                      A
 Frequencies --   1195.2362              1195.5190              1199.4759
 Red. masses --      1.1837                 1.1851                 1.1803
 Frc consts  --      0.9963                 0.9980                 1.0005
 IR Inten    --     60.6540                61.0565                 2.5405

                     64                     65                     66
                      A                      A                      A
 Frequencies --   1285.3279              1285.4271              1286.2021
 Red. masses --      3.7540                 3.7456                 3.7840
 Frc consts  --      3.6541                 3.6464                 3.6883
 IR Inten    --    167.3286               166.6536                38.5325

                     67                     68                     69
                      A                      A                      A
 Frequencies --   1324.1275              1327.3098              1327.6058
 Red. masses --      2.7426                 2.2337                 2.2886
 Frc consts  --      2.8331                 2.3186                 2.3766
 IR Inten    --      8.8355                 3.9874                 3.8153

                     70                     71                     72
                      A                      A                      A
 Frequencies --   1336.7367              1336.8161              1337.1114
 Red. masses --      2.3256                 2.2555                 1.9352
 Frc consts  --      2.4483                 2.3749                 2.0385
 IR Inten    --      0.3459                 0.3249                 0.9260

                     73                     74                     75
                      A                      A                      A
 Frequencies --   1437.9030              1438.0706              1438.1890
 Red. masses --      2.9857                 2.9929                 2.9893
 Frc consts  --      3.6371                 3.6467                 3.6429
 IR Inten    --      6.8636                 2.6172                 2.6416

                     76                     77                     78
                      A                      A                      A
 Frequencies --   1545.5626              1545.6673              1546.5003
 Red. masses --      2.4078                 2.4060                 2.4447
 Frc consts  --      3.3888                 3.3867                 3.4449
 IR Inten    --    116.6189               116.3512                24.1696

                     79                     80                     81
                      A                      A                      A
 Frequencies --   1633.9241              1633.9555              1633.9848
 Red. masses --      6.9664                 6.9600                 6.9622
 Frc consts  --     10.9578                10.9482                10.9520
 IR Inten    --      9.3123                13.1097                12.3275

                     82                     83                     84
                      A                      A                      A
 Frequencies --   1653.5160              1653.5380              1654.3763
 Red. masses --      5.8080                 5.8078                 5.8792
 Frc consts  --      9.3560                 9.3560                 9.4807
 IR Inten    --     82.8982                82.6530                22.5454

                     85                     86                     87
                      A                      A                      A
 Frequencies --   3188.7648              3188.8275              3188.9446
 Red. masses --      1.0892                 1.0892                 1.0892
 Frc consts  --      6.5255                 6.5254                 6.5260
 IR Inten    --      5.9197                 3.7392                 3.7306

                     88                     89                     90
                      A                      A                      A
 Frequencies --   3205.8746              3206.0167              3206.6158
 Red. masses --      1.0878                 1.0878                 1.0878
 Frc consts  --      6.5870                 6.5875                 6.5904
 IR Inten    --      2.0241                 2.0394                 0.3749

                     91                     92                     93
                      A                      A                      A
 Frequencies --   3221.9367              3221.9738              3222.1799
 Red. masses --      1.0942                 1.0942                 1.0940
 Frc consts  --      6.6924                 6.6923                 6.6923
 IR Inten    --      2.9360                 3.1171                11.7539

                     94                     95                     96
                      A                      A                      A
 Frequencies --   3222.5796              3222.6737              3222.8884
 Red. masses --      1.0937                 1.0936                 1.0939
 Frc consts  --      6.6921                 6.6920                 6.6947
 IR Inten    --     12.2126                12.1548                 0.6001

 - Thermochemistry -
 -------------------
 Temperature   298.150 Kelvin.  Pressure   1.00000 Atm.
 Atom     1 has atomic number  6 and mass  12.00000

 Molecular mass:   316.06287 amu.
 Principal axes and moments of inertia in atomic units:
                           1         2         3
     Eigenvalues --  8316.221378321.71101**********
           X            0.99914  -0.04142  -0.00005
           Y            0.04142   0.99914  -0.00002
           Z            0.00005   0.00002   1.00000
 This molecule is an asymmetric top.
 Rotational symmetry number  1.
 Warning -- assumption of classical behavior for rotation
           may cause significant error
 Rotational temperatures (Kelvin)      0.01042     0.01041     0.00597
 Rotational constants (GHZ):           0.21701     0.21687     0.12429
 Zero-point vibrational energy     655277.2 (Joules/Mol)
                                  156.61501 (Kcal/Mol)
 Warning -- explicit consideration of  28 degrees of freedom as
           vibrations may cause significant error
 Vibrational temperatures:     33.55    33.95    53.75    53.99    57.80
          (Kelvin)             72.83   191.28   209.25   209.77   300.71
                              315.09   315.66   443.02   483.35   483.60
                              571.38   581.38   581.56   605.22   605.33
                              611.08   625.97   626.09   666.97   766.80
                              767.06   770.46   874.85   906.42   906.52
                              932.67   932.88   932.97  1028.91  1029.56
                             1029.76  1202.40  1202.55  1204.05  1207.87
                             1207.95  1208.30  1213.90  1213.93  1214.42
                             1379.24  1379.36  1381.05  1395.41  1395.57
                             1400.55  1488.71  1488.84  1489.39  1586.79
                             1587.12  1595.30  1622.34  1622.47  1622.80
                             1719.68  1720.09  1725.78  1849.30  1849.44
                             1850.56  1905.12  1909.70  1910.13  1923.27
                             1923.38  1923.81  2068.82  2069.06  2069.23
                             2223.72  2223.87  2225.07  2350.85  2350.90
                             2350.94  2379.04  2379.07  2380.28  4587.92
                             4588.01  4588.18  4612.54  4612.74  4613.60
                             4635.65  4635.70  4636.00  4636.57  4636.71
                             4637.02

 Zero-point correction=                           0.249582 (Hartree/Particle)
 Thermal correction to Energy=                    0.268015
 Thermal correction to Enthalpy=                  0.268960
 Thermal correction to Gibbs Free Energy=         0.199459
 Sum of electronic and zero-point Energies=          -1333.749392
 Sum of electronic and thermal Energies=             -1333.730959
 Sum of electronic and thermal Enthalpies=           -1333.730015
 Sum of electronic and thermal Free Energies=        -1333.799515

                     E (Thermal)             CV                S
                      KCal/Mol        Cal/Mol-Kelvin    Cal/Mol-Kelvin
 Total                  168.182             71.396            146.276
 Electronic               0.000              0.000              0.000
 Translational            0.889              2.981             43.148
 Rotational               0.889              2.981             35.262
 Vibrational            166.405             65.434             67.866
 Vibration     1          0.593              1.985              6.330
 Vibration     2          0.593              1.985              6.306
 Vibration     3          0.594              1.982              5.395
 Vibration     4          0.594              1.982              5.386
 Vibration     5          0.594              1.981              5.250
 Vibration     6          0.595              1.977              4.793
 Vibration     7          0.613              1.920              2.903
 Vibration     8          0.617              1.908              2.731
 Vibration     9          0.617              1.907              2.726
 Vibration    10          0.642              1.827              2.052
 Vibration    11          0.647              1.812              1.967
 Vibration    12          0.647              1.812              1.964
 Vibration    13          0.698              1.659              1.374
 Vibration    14          0.717              1.604              1.231
 Vibration    15          0.717              1.603              1.231
 Vibration    16          0.764              1.476              0.973
 Vibration    17          0.769              1.461              0.948
 Vibration    18          0.769              1.461              0.947
 Vibration    19          0.783              1.425              0.890
 Vibration    20          0.783              1.425              0.890
 Vibration    21          0.787              1.416              0.876
 Vibration    22          0.796              1.394              0.842
 Vibration    23          0.796              1.394              0.842
 Vibration    24          0.821              1.331              0.756
 Vibration    25          0.888              1.177              0.581
 Vibration    26          0.888              1.177              0.580
 Vibration    27          0.890              1.172              0.575
 Vibration    28          0.967              1.015              0.436

                           ! Non-Optimized Parameters !
 Normal termination of Gaussian 16 at Sun Aug 23 14:59:54 2020.
 Gaussian 16:  ES64L-G16RevA.03 25-Dec-2016

 ----------------------------------------------------------------------
 # TD(NStates=10, Root=1) B3LYP/6-31G* scf=qc volume pop=NPA density=cu
 rrent Geom=AllCheck Guess=Read
 ----------------------------------------------------------------------

 Structure from the checkpoint file:  "phosphine_5_conf123.chk"
 -------------------
 Title Card Required
 -------------------
 Charge =  0 Multiplicity = 1

                         Standard orientation:
 ---------------------------------------------------------------------
 Center     Atomic      Atomic             Coordinates (Angstroms)
 Number     Number       Type             X           Y           Z
 ---------------------------------------------------------------------
      1          6           0        2.244486    2.491328   -1.126920
      2          6           0        1.185935    1.749011   -0.601445
      3          6           0        1.341940    0.993798    0.571738
      4          6           0        2.592008    1.011263    1.214878
      5          6           0        3.663323    1.737444    0.697916
      6          6           0        3.468146    2.468963   -0.468412
      7          9           0        4.495137    3.184086   -0.971295
      8         15           0       -0.000198    0.000340    1.374473
      9          6           0       -1.531782    0.665065    0.571395
     10          6           0       -2.100421    0.159616   -0.608573
     11          6           0       -3.272315    0.704741   -1.134940
     12          6           0       -3.872054    1.767883   -0.470361
     13          6           0       -3.343598    2.295298    0.702678
     14          6           0       -2.179039    1.731106    1.220289
     15          9           0       -5.004773    2.299148   -0.974004
     16          6           0        0.189597   -1.658598    0.571638
     17          6           0       -0.420262   -2.750220    1.214294
     18          6           0       -0.326969   -4.040853    0.696738
     19          6           0        0.404091   -4.237035   -0.469716
     20          6           0        1.035276   -3.188195   -1.127747
     21          6           0        0.921658   -1.900552   -0.601653
     22          9           0        0.509931   -5.483774   -0.973161
     23          1           0        2.132768    3.081221   -2.031077
     24          1           0        0.227552    1.765858   -1.111129
     25          1           0        2.729257    0.451951    2.137099
     26          1           0        4.631822    1.753904    1.187089
     27          1           0       -1.630139   -0.672910   -1.122705
     28          1           0       -3.721733    0.318607   -2.044269
     29          1           0       -3.847712    3.119746    1.196341
     30          1           0       -1.768997    2.123646    2.147610
     31          1           0       -0.973237   -2.589881    2.136612
     32          1           0       -0.796894   -4.888078    1.185540
     33          1           0        1.601992   -3.385967   -2.031999
     34          1           0        1.415513   -1.078718   -1.110847
 ---------------------------------------------------------------------

 SCF Done:  E(RB3LYP) =  -1333.99897438     a.u. after    1 cycles

 Excitation energies and oscillator strengths:

 Excited State   1:      Singlet-A      4.5716 eV  271.21 nm  f=0.1338  <S**2>=0.000
      81 -> 82         0.69328
 This state for optimization and/or second-order correction.
 Total Energy, E(TD-HF/TD-DFT) =  -1333.83097109
 Copying the excited state density for this state as the 1-particle RhoCI density.

 Excited State   2:      Singlet-A      4.5765 eV  270.92 nm  f=0.1358  <S**2>=0.000
      81 -> 83         0.69295

 Excited State   3:      Singlet-A      4.5866 eV  270.32 nm  f=0.0107  <S**2>=0.000
      81 -> 84         0.68788

 Excited State   4:      Singlet-A      4.9044 eV  252.80 nm  f=0.0018  <S**2>=0.000
      81 -> 85         0.67658

 Excited State   5:      Singlet-A      4.9069 eV  252.67 nm  f=0.0016  <S**2>=0.000
      81 -> 86         0.67604

 Excited State   6:      Singlet-A      5.2394 eV  236.64 nm  f=0.0075  <S**2>=0.000
      79 -> 82         0.10314
      80 -> 83        -0.10429
      81 -> 87         0.67230

 Excited State   7:      Singlet-A      5.4166 eV  228.90 nm  f=0.0001  <S**2>=0.000
      75 -> 84        -0.14114
      77 -> 82        -0.18268
      78 -> 83         0.15642
      79 -> 82        -0.28971
      79 -> 83         0.29043
      79 -> 85        -0.15647
      80 -> 82         0.28808
      80 -> 83         0.28130
      80 -> 86         0.13871

 Excited State   8:      Singlet-A      5.4449 eV  227.71 nm  f=0.0019  <S**2>=0.000
      76 -> 82         0.21159
      77 -> 83        -0.15428
      77 -> 87         0.11725
      78 -> 82         0.15955
      78 -> 83        -0.11859
      79 -> 84         0.29305
      79 -> 85        -0.14653
      80 -> 84         0.40480
      80 -> 86        -0.16221
      81 -> 85         0.11993

 Excited State   9:      Singlet-A      5.4464 eV  227.65 nm  f=0.0021  <S**2>=0.000
      76 -> 83         0.20744
      77 -> 82        -0.14540
      77 -> 83         0.10746
      78 -> 82        -0.10570
      78 -> 83        -0.16483
      78 -> 87        -0.11728
      79 -> 84         0.39926
      79 -> 86         0.15498
      80 -> 84        -0.30278
      80 -> 85        -0.15308
      81 -> 86         0.12168

 Excited State  10:      Singlet-A      5.6619 eV  218.98 nm  f=0.0053  <S**2>=0.000
      75 -> 84         0.16025
      76 -> 84        -0.10081
      77 -> 82         0.24347
      78 -> 83        -0.22353
      79 -> 82        -0.11063
      79 -> 83         0.17808
      79 -> 85         0.21477
      79 -> 86         0.10411
      80 -> 82         0.38119
      80 -> 85         0.10484
      80 -> 86        -0.23946

 The electronic state is 1-A.
 Alpha  occ. eigenvalues --  -77.09285 -24.70938 -24.70931 -24.70929 -10.27935
 Alpha  occ. eigenvalues --  -10.27926 -10.27924 -10.20805 -10.20800 -10.20798
 Alpha  occ. eigenvalues --  -10.20706 -10.20698 -10.20697 -10.20480 -10.20478
 Alpha  occ. eigenvalues --  -10.20476 -10.20322 -10.20314 -10.20313 -10.20312
 Alpha  occ. eigenvalues --  -10.20308 -10.20306  -6.55986  -4.72247  -4.72247
 Alpha  occ. eigenvalues --   -4.71743  -1.22117  -1.22109  -1.22107  -0.87207
 Alpha  occ. eigenvalues --   -0.86557  -0.86552  -0.77802  -0.76322  -0.76286
 Alpha  occ. eigenvalues --   -0.76284  -0.74869  -0.74865  -0.65458  -0.63138
 Alpha  occ. eigenvalues --   -0.62959  -0.62957  -0.60999  -0.60996  -0.57074
 Alpha  occ. eigenvalues --   -0.54667  -0.54663  -0.54254  -0.49447  -0.49443
 Alpha  occ. eigenvalues --   -0.49382  -0.48019  -0.48018  -0.46313  -0.46307
 Alpha  occ. eigenvalues --   -0.46295  -0.45865  -0.44921  -0.44920  -0.43857
 Alpha  occ. eigenvalues --   -0.43707  -0.43704  -0.42082  -0.40157  -0.40109
 Alpha  occ. eigenvalues --   -0.40106  -0.37164  -0.37156  -0.36438  -0.34999
 Alpha  occ. eigenvalues --   -0.34995  -0.34951  -0.33924  -0.33922  -0.27230
 Alpha  occ. eigenvalues --   -0.26848  -0.26602  -0.26595  -0.25430  -0.25418
 Alpha  occ. eigenvalues --   -0.21918
 Alpha virt. eigenvalues --   -0.02517  -0.02505  -0.02413  -0.01177  -0.01167
 Alpha virt. eigenvalues --   -0.00310   0.05874   0.05899   0.08466   0.10088
 Alpha virt. eigenvalues --    0.10091   0.12846   0.13529   0.13531   0.14052

 Mulliken charges:
               1
     1  C   -0.192105
     2  C   -0.154117
     3  C   -0.108745
     4  C   -0.181268
     5  C   -0.179888
     6  C    0.366507
     7  F   -0.292926
     8  P    0.435743
     9  C   -0.122039
    10  C   -0.191418
    11  C   -0.178833
    12  C    0.340989
    13  C   -0.198567
    14  C   -0.161809
    15  F   -0.304897
    16  C   -0.078101
    17  C   -0.155232
    18  C   -0.187725
    19  C    0.386722
    20  C   -0.181727
    21  C   -0.159044
    22  F   -0.283979
    23  H    0.152063
    24  H    0.170013
    25  H    0.138390
    26  H    0.148081
    27  H    0.125659
    28  H    0.136750
    29  H    0.133698
    30  H    0.129113
    31  H    0.158099
    32  H    0.159817
    33  H    0.162282
    34  H    0.168495
 Sum of Mulliken charges =  -0.00000

 Dipole moment (field-independent basis, Debye):
    X=              2.2825    Y=             -2.5612    Z=              1.4588  Tot=              3.7280
 Quadrupole moment (field-independent basis, Debye-Ang):
   XX=           -145.6538   YY=           -133.3859   ZZ=           -121.8256
   XY=              2.6130   XZ=             -1.0021   YZ=             -0.1234

 Summary of Natural Population Analysis:

                                       Natural Population
                Natural  -----------------------------------------------
    Atom  No    Charge         Core      Valence    Rydberg      Total
 -----------------------------------------------------------------------
      C    1   -0.31039      1.99899     4.29609    0.01532     6.31039
      C    2   -0.19723      1.99901     4.18181    0.01641     6.19723
      C    3   -0.44657      1.99889     4.42111    0.02657     6.44657
      C    4   -0.23090      1.99903     4.21542    0.01644     6.23090
      C    5   -0.29375      1.99899     4.27992    0.01484     6.29375
      C    6    0.41502      1.99844     3.55891    0.02763     5.58498
      F    7   -0.32900      1.99994     7.32350    0.00556     9.32900
      P    8    1.21018      9.99756     3.74076    0.05150    13.78982
      C    9   -0.48046      1.99887     4.45629    0.02530     6.48046
      C   10   -0.28066      1.99900     4.26267    0.01898     6.28066
      C   11   -0.28434      1.99899     4.27048    0.01488     6.28434
      C   12    0.37425      1.99844     3.59927    0.02804     5.62575
      C   13   -0.32850      1.99900     4.31331    0.01620     6.32850
      C   14   -0.19773      1.99902     4.18308    0.01563     6.19773
      F   15   -0.33951      1.99994     7.33409    0.00548     9.33951
      C   16   -0.38990      1.99890     4.36652    0.02449     6.38990
      C   17   -0.18442      1.99903     4.17029    0.01510     6.18442
      C   18   -0.30965      1.99899     4.29541    0.01526     6.30965
      C   19    0.44826      1.99844     3.52614    0.02715     5.55174
      C   20   -0.29240      1.99898     4.27878    0.01464     6.29240
      C   21   -0.21279      1.99901     4.19724    0.01654     6.21279
      F   22   -0.32103      1.99994     7.31551    0.00558     9.32103
      H   23    0.25449      0.00000     0.74432    0.00119     0.74551
      H   24    0.25782      0.00000     0.74062    0.00156     0.74218
      H   25    0.23670      0.00000     0.76234    0.00096     0.76330
      H   26    0.25155      0.00000     0.74721    0.00124     0.74845
      H   27    0.23374      0.00000     0.76481    0.00145     0.76626
      H   28    0.24672      0.00000     0.75208    0.00121     0.75328
      H   29    0.24555      0.00000     0.75326    0.00119     0.75445
      H   30    0.23249      0.00000     0.76653    0.00099     0.76751
      H   31    0.24807      0.00000     0.75068    0.00125     0.75193
      H   32    0.25779      0.00000     0.74104    0.00116     0.74221
      H   33    0.25902      0.00000     0.73980    0.00118     0.74098
      H   34    0.25760      0.00000     0.74118    0.00122     0.74240
 =======================================================================
   * Total *   -0.00000     51.97740   109.59048    0.43212   162.00000

 Normal termination of Gaussian 16 at Sun Aug 23 15:15:39 2020.
