 Gaussian 16, Revision A.03,

 ---------------------------------
 # opt=CalcAll B3LYP/6-31G* scf=qc
 ---------------------------------

 -------------------
 Title Card Required
 -------------------
 Symbolic Z-matrix:
 Charge =  0 Multiplicity = 1

 SCF Done:  E(RB3LYP) =  -1333.98764326     a.u. after    7 cycles
 SCF Done:  E(RB3LYP) =  -1333.99557423     a.u. after   17 cycles
 SCF Done:  E(RB3LYP) =  -1333.99783765     a.u. after   15 cycles
 SCF Done:  E(RB3LYP) =  -1333.99873628     a.u. after   17 cycles
 SCF Done:  E(RB3LYP) =  -1333.99880585     a.u. after   17 cycles
 SCF Done:  E(RB3LYP) =  -1333.99897675     a.u. after   13 cycles
 SCF Done:  E(RB3LYP) =  -1333.99897538     a.u. after    3 cycles
 SCF Done:  E(RB3LYP) =  -1333.99897950     a.u. after    2 cycles
 SCF Done:  E(RB3LYP) =  -1333.99897636     a.u. after    3 cycles
 SCF Done:  E(RB3LYP) =  -1333.99897555     a.u. after    3 cycles
 SCF Done:  E(RB3LYP) =  -1333.99897845     a.u. after    2 cycles
 SCF Done:  E(RB3LYP) =  -1333.99898213     a.u. after    2 cycles
 SCF Done:  E(RB3LYP) =  -1333.99897311     a.u. after    2 cycles
 SCF Done:  E(RB3LYP) =  -1333.99897327     a.u. after    2 cycles
 SCF Done:  E(RB3LYP) =  -1333.99898165     a.u. after    2 cycles
 SCF Done:  E(RB3LYP) =  -1333.99897371     a.u. after    2 cycles
 SCF Done:  E(RB3LYP) =  -1333.99897519     a.u. after    2 cycles
 SCF Done:  E(RB3LYP) =  -1333.99897333     a.u. after    2 cycles
 Optimization completed on the basis of negligible forces.
    -- Stationary point found.
 Normal termination of Gaussian 16 at Sun Aug 23 17:08:43 2020.

 ----------------------------------------------------------------------
 # freq B3LYP/6-31G* scf=qc volume NMR pop=NPA density=current Geom=All
 Check Guess=Read
 ----------------------------------------------------------------------

 Structure from the checkpoint file:  "phosphine_5_conf262.chk"
 -------------------
 Title Card Required
 -------------------
 Charge =  0 Multiplicity = 1

 SCF Done:  E(RB3LYP) =  -1333.99897333     a.u. after    1 cycles

      1  C    Isotropic =    79.9281   Anisotropy =   137.4395

      2  C    Isotropic =    59.0138   Anisotropy =   162.7680

      3  C    Isotropic =    61.6199   Anisotropy =   173.5114

      4  C    Isotropic =    60.6925   Anisotropy =   171.9029

      5  C    Isotropic =    80.0703   Anisotropy =   136.7293

      6  C    Isotropic =    32.6507   Anisotropy =    98.8413

      7  F    Isotropic =   295.7644   Anisotropy =   113.0673

      8  P    Isotropic =   366.1950   Anisotropy =    39.8869

      9  C    Isotropic =    61.5843   Anisotropy =   173.5449

     10  C    Isotropic =    60.7515   Anisotropy =   171.8586

     11  C    Isotropic =    80.0751   Anisotropy =   136.7451

     12  C    Isotropic =    32.6816   Anisotropy =    98.7821

     13  C    Isotropic =    79.9452   Anisotropy =   137.4476

     14  C    Isotropic =    59.0752   Anisotropy =   162.8265

     15  F    Isotropic =   295.8153   Anisotropy =   112.9270

     16  C    Isotropic =    61.6462   Anisotropy =   173.4638

     17  C    Isotropic =    60.6998   Anisotropy =   171.9040

     18  C    Isotropic =    80.0599   Anisotropy =   136.7270

     19  C    Isotropic =    32.6637   Anisotropy =    98.8274

     20  C    Isotropic =    79.9269   Anisotropy =   137.4296

     21  C    Isotropic =    59.0188   Anisotropy =   162.8000

     22  F    Isotropic =   295.8000   Anisotropy =   113.0682

     23  H    Isotropic =    25.3578   Anisotropy =     4.2588

     24  H    Isotropic =    24.6163   Anisotropy =     8.9146

     25  H    Isotropic =    25.3627   Anisotropy =    12.0080

     26  H    Isotropic =    25.4672   Anisotropy =     5.7343

     27  H    Isotropic =    25.3656   Anisotropy =    12.0401

     28  H    Isotropic =    25.4655   Anisotropy =     5.7399

     29  H    Isotropic =    25.3627   Anisotropy =     4.2523

     30  H    Isotropic =    24.6217   Anisotropy =     8.9314

     31  H    Isotropic =    25.3612   Anisotropy =    12.0222

     32  H    Isotropic =    25.4652   Anisotropy =     5.7373

     33  H    Isotropic =    25.3570   Anisotropy =     4.2591

     34  H    Isotropic =    24.6182   Anisotropy =     8.9213

  Exact polarizability: 226.302  -0.105 226.060  -0.074   0.104 167.710
 Approx polarizability: 338.041  -0.233 337.595  -0.160   0.237 314.832

                      1                      2                      3
                      A                      A                      A
 Frequencies --     22.7869                23.4855                37.1846
 Red. masses --      4.0549                 4.0218                 9.2706
 Frc consts  --      0.0012                 0.0013                 0.0076
 IR Inten    --      0.2525                 0.2527                 0.0933

                      4                      5                      6
                      A                      A                      A
 Frequencies --     37.3675                39.8545                50.5749
 Red. masses --      8.9197                 3.7677                 9.9588
 Frc consts  --      0.0073                 0.0035                 0.0150
 IR Inten    --      0.0927                 0.0076                 0.1150

                      7                      8                      9
                      A                      A                      A
 Frequencies --    132.9184               145.3252               145.7165
 Red. masses --      8.0487                 8.3672                 8.3694
 Frc consts  --      0.0838                 0.1041                 0.1047
 IR Inten    --      0.0231                 0.5240                 0.5173

                     10                     11                     12
                      A                      A                      A
 Frequencies --    208.9578               218.9730               219.3164
 Red. masses --      8.0489                 6.9848                 6.9917
 Frc consts  --      0.2071                 0.1973                 0.1981
 IR Inten    --      0.2895                 0.5255                 0.5273

                     13                     14                     15
                      A                      A                      A
 Frequencies --    307.8828               335.9487               336.0864
 Red. masses --      8.4348                 8.3037                 8.3139
 Frc consts  --      0.4711                 0.5522                 0.5533
 IR Inten    --      1.0299                 0.0434                 0.0446

                     16                     17                     18
                      A                      A                      A
 Frequencies --    397.1365               404.1198               404.1563
 Red. masses --      7.7444                 8.0105                 8.0387
 Frc consts  --      0.7196                 0.7708                 0.7736
 IR Inten    --      0.3012                10.1211                10.0848

                     19                     20                     21
                      A                      A                      A
 Frequencies --    420.5243               420.6453               424.6439
 Red. masses --      3.2820                 3.2774                 3.1335
 Frc consts  --      0.3420                 0.3417                 0.3329
 IR Inten    --      1.1374                 1.1016                 0.0245

                     22                     23                     24
                      A                      A                      A
 Frequencies --    435.0240               435.1462               463.4555
 Red. masses --      6.1411                 6.1542                 6.6385
 Frc consts  --      0.6847                 0.6866                 0.8401
 IR Inten    --     18.9298                19.0402                 7.3850

                     25                     26                     27
                      A                      A                      A
 Frequencies --    532.9762               533.1034               535.4391
 Red. masses --      2.8113                 2.8101                 2.9070
 Frc consts  --      0.4705                 0.4705                 0.4910
 IR Inten    --     21.7943                21.9089                13.4926

                     28                     29                     30
                      A                      A                      A
 Frequencies --    608.0418               629.9624               630.0266
 Red. masses --      7.9074                 7.8316                 7.8281
 Frc consts  --      1.7225                 1.8312                 1.8307
 IR Inten    --      0.0090                 0.0382                 0.0390

                     31                     32                     33
                      A                      A                      A
 Frequencies --    648.2277               648.3869               648.4448
 Red. masses --      7.2768                 7.3786                 7.3808
 Frc consts  --      1.8015                 1.8277                 1.8285
 IR Inten    --      0.0053                 0.1271                 0.1291

                     34                     35                     36
                      A                      A                      A
 Frequencies --    715.0830               715.6240               715.7007
 Red. masses --      4.8082                 4.8267                 4.8275
 Frc consts  --      1.4486                 1.4564                 1.4569
 IR Inten    --      1.0522                 3.9044                 3.9712

                     37                     38                     39
                      A                      A                      A
 Frequencies --    835.7329               835.7535               836.8680
 Red. masses --      1.2627                 1.2630                 1.3248
 Frc consts  --      0.5196                 0.5198                 0.5467
 IR Inten    --      0.5443                 0.6081                11.0174

                     40                     41                     42
                      A                      A                      A
 Frequencies --    839.5017               839.5429               839.7390
 Red. masses --      3.2786                 3.2864                 3.9531
 Frc consts  --      1.3614                 1.3647                 1.6424
 IR Inten    --     61.5505                60.0588                20.3278

                     43                     44                     45
                      A                      A                      A
 Frequencies --    843.5868               843.6558               843.9850
 Red. masses --      1.9841                 1.9733                 1.6969
 Frc consts  --      0.8319                 0.8275                 0.7122
 IR Inten    --     10.5712                10.0014                11.9302

                     46                     47                     48
                      A                      A                      A
 Frequencies --    958.5753               958.6023               959.8161
 Red. masses --      1.2559                 1.2560                 1.2582
 Frc consts  --      0.6799                 0.6800                 0.6829
 IR Inten    --      0.1717                 0.1748                 0.3465

                     49                     50                     51
                      A                      A                      A
 Frequencies --    969.8073               969.8604               973.1914
 Red. masses --      1.3358                 1.3357                 1.3206
 Frc consts  --      0.7402                 0.7402                 0.7369
 IR Inten    --      0.0327                 0.0342                 0.3108

                     52                     53                     54
                      A                      A                      A
 Frequencies --   1034.6874              1034.7576              1035.1592
 Red. masses --      3.0248                 3.0295                 3.0217
 Frc consts  --      1.9080                 1.9112                 1.9077
 IR Inten    --      8.0005                 7.9386                 0.0963

                     55                     56                     57
                      A                      A                      A
 Frequencies --   1102.7686              1103.0118              1108.6768
 Red. masses --      3.6667                 3.6670                 3.5555
 Frc consts  --      2.6272                 2.6286                 2.5749
 IR Inten    --     19.2081                19.2678                 1.8971

                     58                     59                     60
                      A                      A                      A
 Frequencies --   1127.4090              1127.6584              1127.8405
 Red. masses --      1.3302                 1.3303                 1.3289
 Frc consts  --      0.9962                 0.9967                 0.9960
 IR Inten    --      0.8568                 1.3663                 6.8013

                     61                     62                     63
                      A                      A                      A
 Frequencies --   1195.0426              1195.4520              1199.3680
 Red. masses --      1.1829                 1.1847                 1.1798
 Frc consts  --      0.9954                 0.9975                 0.9999
 IR Inten    --     60.3541                61.0134                 2.4593

                     64                     65                     66
                      A                      A                      A
 Frequencies --   1285.2292              1285.4210              1286.1635
 Red. masses --      3.7578                 3.7476                 3.7872
 Frc consts  --      3.6572                 3.6484                 3.6912
 IR Inten    --    167.3934               167.0775                38.2525

                     67                     68                     69
                      A                      A                      A
 Frequencies --   1324.0933              1327.2061              1327.5323
 Red. masses --      2.7160                 2.1689                 2.2728
 Frc consts  --      2.8055                 2.2509                 2.3599
 IR Inten    --      8.8937                 3.9458                 3.8544

                     70                     71                     72
                      A                      A                      A
 Frequencies --   1336.5735              1336.7869              1337.0225
 Red. masses --      2.3954                 2.2501                 1.9674
 Frc consts  --      2.5212                 2.3691                 2.0721
 IR Inten    --      0.3624                 0.3624                 0.8773

                     73                     74                     75
                      A                      A                      A
 Frequencies --   1437.8849              1438.0333              1438.1527
 Red. masses --      2.9863                 2.9972                 2.9904
 Frc consts  --      3.6377                 3.6518                 3.6441
 IR Inten    --      7.0719                 2.5012                 2.5472

                     76                     77                     78
                      A                      A                      A
 Frequencies --   1545.4349              1545.6119              1546.4302
 Red. masses --      2.4104                 2.4063                 2.4460
 Frc consts  --      3.3919                 3.3869                 3.4464
 IR Inten    --    116.4439               116.6265                24.1025

                     79                     80                     81
                      A                      A                      A
 Frequencies --   1633.8901              1633.9430              1633.9810
 Red. masses --      6.9686                 6.9725                 6.9627
 Frc consts  --     10.9607                10.9677                10.9528
 IR Inten    --     10.9539                10.3192                13.4884

                     82                     83                     84
                      A                      A                      A
 Frequencies --   1653.5007              1653.5292              1654.3709
 Red. masses --      5.8108                 5.8083                 5.8803
 Frc consts  --      9.3605                 9.3567                 9.4824
 IR Inten    --     82.8889                82.7449                22.5044

                     85                     86                     87
                      A                      A                      A
 Frequencies --   3188.7837              3188.8061              3188.9634
 Red. masses --      1.0893                 1.0891                 1.0892
 Frc consts  --      6.5257                 6.5252                 6.5261
 IR Inten    --      7.7412                 1.8177                 3.8475

                     88                     89                     90
                      A                      A                      A
 Frequencies --   3205.8194              3205.8651              3206.4723
 Red. masses --      1.0878                 1.0878                 1.0879
 Frc consts  --      6.5867                 6.5869                 6.5899
 IR Inten    --      2.0024                 2.0533                 0.3595

                     91                     92                     93
                      A                      A                      A
 Frequencies --   3221.8749              3221.9181              3222.1326
 Red. masses --      1.0942                 1.0942                 1.0941
 Frc consts  --      6.6922                 6.6922                 6.6924
 IR Inten    --      3.2426                 3.2941                11.7711

                     94                     95                     96
                      A                      A                      A
 Frequencies --   3222.5880              3222.6901              3222.8845
 Red. masses --      1.0937                 1.0936                 1.0939
 Frc consts  --      6.6920                 6.6920                 6.6944
 IR Inten    --     11.9480                12.0565                 0.4789

 - Thermochemistry -
 -------------------
 Temperature   298.150 Kelvin.  Pressure   1.00000 Atm.
 Atom     1 has atomic number  6 and mass  12.00000

 Molecular mass:   316.06287 amu.
 Principal axes and moments of inertia in atomic units:
                           1         2         3
     Eigenvalues --  8314.575268322.39043**********
           X            0.99964  -0.02694  -0.00003
           Y            0.02694   0.99964   0.00002
           Z            0.00003  -0.00002   1.00000
 This molecule is an asymmetric top.
 Rotational symmetry number  1.
 Warning -- assumption of classical behavior for rotation
           may cause significant error
 Rotational temperatures (Kelvin)      0.01042     0.01041     0.00597
 Rotational constants (GHZ):           0.21706     0.21685     0.12429
 Zero-point vibrational energy     655241.9 (Joules/Mol)
                                  156.60657 (Kcal/Mol)
 Warning -- explicit consideration of  28 degrees of freedom as
           vibrations may cause significant error
 Vibrational temperatures:     32.79    33.79    53.50    53.76    57.34
          (Kelvin)             72.77   191.24   209.09   209.65   300.64
                              315.05   315.55   442.97   483.36   483.55
                              571.39   581.44   581.49   605.04   605.21
                              610.97   625.90   626.08   666.81   766.83
                              767.02   770.38   874.84   906.38   906.47
                              932.66   932.88   932.97  1028.85  1029.62
                             1029.73  1202.43  1202.46  1204.07  1207.86
                             1207.91  1208.20  1213.73  1213.83  1214.31
                             1379.18  1379.21  1380.96  1395.34  1395.41
                             1400.21  1488.68  1488.79  1489.36  1586.64
                             1586.99  1595.14  1622.09  1622.45  1622.71
                             1719.40  1719.99  1725.62  1849.16  1849.43
                             1850.50  1905.07  1909.55  1910.02  1923.03
                             1923.34  1923.68  2068.80  2069.01  2069.18
                             2223.54  2223.79  2224.97  2350.80  2350.88
                             2350.93  2379.02  2379.06  2380.27  4587.95
                             4587.98  4588.21  4612.46  4612.52  4613.40
                             4635.56  4635.62  4635.93  4636.59  4636.73
                             4637.01

 Zero-point correction=                           0.249568 (Hartree/Particle)
 Thermal correction to Energy=                    0.268006
 Thermal correction to Enthalpy=                  0.268951
 Thermal correction to Gibbs Free Energy=         0.199404
 Sum of electronic and zero-point Energies=          -1333.749405
 Sum of electronic and thermal Energies=             -1333.730967
 Sum of electronic and thermal Enthalpies=           -1333.730023
 Sum of electronic and thermal Free Energies=        -1333.799570

                     E (Thermal)             CV                S
                      KCal/Mol        Cal/Mol-Kelvin    Cal/Mol-Kelvin
 Total                  168.177             71.401            146.373
 Electronic               0.000              0.000              0.000
 Translational            0.889              2.981             43.148
 Rotational               0.889              2.981             35.262
 Vibrational            166.399             65.439             67.963
 Vibration     1          0.593              1.985              6.375
 Vibration     2          0.593              1.985              6.315
 Vibration     3          0.594              1.982              5.404
 Vibration     4          0.594              1.982              5.394
 Vibration     5          0.594              1.981              5.266
 Vibration     6          0.595              1.977              4.795
 Vibration     7          0.613              1.920              2.903
 Vibration     8          0.617              1.908              2.733
 Vibration     9          0.617              1.907              2.727
 Vibration    10          0.642              1.827              2.053
 Vibration    11          0.647              1.812              1.968
 Vibration    12          0.647              1.812              1.965
 Vibration    13          0.698              1.659              1.374
 Vibration    14          0.717              1.604              1.231
 Vibration    15          0.717              1.603              1.231
 Vibration    16          0.764              1.476              0.973
 Vibration    17          0.769              1.461              0.948
 Vibration    18          0.769              1.461              0.947
 Vibration    19          0.783              1.426              0.890
 Vibration    20          0.783              1.425              0.890
 Vibration    21          0.787              1.417              0.876
 Vibration    22          0.796              1.394              0.842
 Vibration    23          0.796              1.394              0.842
 Vibration    24          0.821              1.331              0.756
 Vibration    25          0.888              1.177              0.581
 Vibration    26          0.888              1.177              0.580
 Vibration    27          0.890              1.172              0.575
 Vibration    28          0.967              1.015              0.436

 Optimization completed on the basis of negligible forces.
    -- Stationary point found.
 Normal termination of Gaussian 16 at Sun Aug 23 17:22:45 2020.
 Gaussian 16:  ES64L-G16RevA.03 25-Dec-2016

 ----------------------------------------------------------------------
 # TD(NStates=10, Root=1) B3LYP/6-31G* scf=qc volume pop=NPA density=cu
 rrent Geom=AllCheck Guess=Read
 ----------------------------------------------------------------------

 Structure from the checkpoint file:  "phosphine_5_conf263.chk"
 -------------------
 Title Card Required
 -------------------
 Charge =  0 Multiplicity = 1

                         Standard orientation:
 ---------------------------------------------------------------------
 Center     Atomic      Atomic             Coordinates (Angstroms)
 Number     Number       Type             X           Y           Z
 ---------------------------------------------------------------------
      1          6           0       -1.953339    3.553453    0.700196
      2          6           0       -1.165788    2.526718    1.217879
      3          6           0       -1.069383    1.281962    0.571532
      4          6           0       -1.808001    1.083881   -0.605888
      5          6           0       -2.610678    2.096896   -1.132285
      6          6           0       -2.665948    3.317675   -0.470307
      7          9           0       -3.439778    4.300763   -0.973987
      8         15           0        0.000641    0.000329    1.374676
      9          6           0       -0.575204   -1.567101    0.572073
     10          6           0       -0.028807   -2.113213   -0.600220
     11          6           0       -0.506006   -3.314593   -1.126222
     12          6           0       -1.542445   -3.966916   -0.469170
     13          6           0       -2.108497   -3.462161    0.696326
     14          6           0       -1.611750   -2.267300    1.213856
     15          9           0       -2.008315   -5.128186   -0.972600
     16          6           0        1.645745    0.285336    0.571542
     17          6           0        1.844618    1.026836   -0.603920
     18          6           0        3.123579    1.214906   -1.129776
     19          6           0        4.207581    0.649019   -0.469296
     20          6           0        4.054355   -0.088814    0.699308
     21          6           0        2.771162   -0.256831    1.216553
     22          9           0        5.446148    0.827071   -0.972511
     23          1           0       -2.031051    4.517685    1.191897
     24          1           0       -0.620309    2.694910    2.143251
     25          1           0       -1.764096    0.127663   -1.118038
     26          1           0       -3.188300    1.952278   -2.039697
     27          1           0        0.782643   -1.601778   -1.108710
     28          1           0       -0.087730   -3.746691   -2.029710
     29          1           0       -2.909981   -4.007078    1.184416
     30          1           0       -2.034632   -1.874829    2.135434
     31          1           0        0.995322    1.469633   -1.115007
     32          1           0        3.288017    1.789597   -2.035670
     33          1           0        4.927623   -0.506201    1.189970
     34          1           0        2.643224   -0.815463    2.140521
 ---------------------------------------------------------------------

 SCF Done:  E(RB3LYP) =  -1333.99897333     a.u. after    1 cycles

 Excitation energies and oscillator strengths:

 Excited State   1:      Singlet-A      4.5724 eV  271.16 nm  f=0.1345  <S**2>=0.000
      81 -> 82         0.69360
 This state for optimization and/or second-order correction.
 Total Energy, E(TD-HF/TD-DFT) =  -1333.83093978
 Copying the excited state density for this state as the 1-particle RhoCI density.

 Excited State   2:      Singlet-A      4.5758 eV  270.96 nm  f=0.1363  <S**2>=0.000
      81 -> 83         0.69386

 Excited State   3:      Singlet-A      4.5859 eV  270.36 nm  f=0.0096  <S**2>=0.000
      81 -> 84         0.68877

 Excited State   4:      Singlet-A      4.9046 eV  252.79 nm  f=0.0018  <S**2>=0.000
      81 -> 85         0.67632

 Excited State   5:      Singlet-A      4.9063 eV  252.70 nm  f=0.0016  <S**2>=0.000
      81 -> 86         0.67594

 Excited State   6:      Singlet-A      5.2390 eV  236.65 nm  f=0.0075  <S**2>=0.000
      79 -> 82         0.10851
      80 -> 83         0.10935
      81 -> 87         0.67233

 Excited State   7:      Singlet-A      5.4170 eV  228.88 nm  f=0.0000  <S**2>=0.000
      75 -> 84        -0.14187
      77 -> 82         0.18145
      78 -> 83        -0.16328
      79 -> 82        -0.26719
      79 -> 83        -0.30875
      79 -> 85        -0.15327
      80 -> 82         0.30875
      80 -> 83        -0.26180
      80 -> 86         0.14102

 Excited State   8:      Singlet-A      5.4449 eV  227.71 nm  f=0.0020  <S**2>=0.000
      76 -> 82         0.20968
      77 -> 83        -0.18142
      77 -> 87        -0.12139
      78 -> 82         0.18298
      79 -> 84         0.30698
      79 -> 86        -0.13445
      80 -> 84         0.39552
      80 -> 85         0.13586
      81 -> 85         0.12392

 Excited State   9:      Singlet-A      5.4460 eV  227.66 nm  f=0.0021  <S**2>=0.000
      76 -> 83        -0.20669
      77 -> 82         0.17021
      78 -> 83         0.18956
      78 -> 87        -0.12116
      79 -> 84         0.39132
      79 -> 85        -0.12869
      80 -> 84        -0.31414
      80 -> 86        -0.14260
      81 -> 86         0.12474

 Excited State  10:      Singlet-A      5.6622 eV  218.97 nm  f=0.0027  <S**2>=0.000
      75 -> 84         0.16338
      76 -> 84        -0.10166
      77 -> 82        -0.24801
      78 -> 83         0.23476
      79 -> 83        -0.21942
      79 -> 85         0.22076
      79 -> 86         0.10755
      80 -> 82         0.35821
      80 -> 85         0.11064
      80 -> 86        -0.23702

 The electronic state is 1-A.
 Alpha  occ. eigenvalues --  -77.09285 -24.70935 -24.70934 -24.70929 -10.27932
 Alpha  occ. eigenvalues --  -10.27930 -10.27924 -10.20803 -10.20802 -10.20798
 Alpha  occ. eigenvalues --  -10.20702 -10.20701 -10.20696 -10.20479 -10.20479
 Alpha  occ. eigenvalues --  -10.20477 -10.20319 -10.20317 -10.20313 -10.20310
 Alpha  occ. eigenvalues --  -10.20310 -10.20306  -6.55987  -4.72248  -4.72248
 Alpha  occ. eigenvalues --   -4.71744  -1.22114  -1.22112  -1.22107  -0.87208
 Alpha  occ. eigenvalues --   -0.86557  -0.86553  -0.77802  -0.76322  -0.76286
 Alpha  occ. eigenvalues --   -0.76284  -0.74869  -0.74866  -0.65458  -0.63137
 Alpha  occ. eigenvalues --   -0.62959  -0.62958  -0.60999  -0.60997  -0.57074
 Alpha  occ. eigenvalues --   -0.54666  -0.54664  -0.54254  -0.49447  -0.49444
 Alpha  occ. eigenvalues --   -0.49381  -0.48019  -0.48018  -0.46311  -0.46308
 Alpha  occ. eigenvalues --   -0.46295  -0.45864  -0.44922  -0.44920  -0.43856
 Alpha  occ. eigenvalues --   -0.43706  -0.43704  -0.42082  -0.40157  -0.40109
 Alpha  occ. eigenvalues --   -0.40107  -0.37162  -0.37156  -0.36439  -0.34998
 Alpha  occ. eigenvalues --   -0.34996  -0.34951  -0.33924  -0.33923  -0.27232
 Alpha  occ. eigenvalues --   -0.26849  -0.26601  -0.26596  -0.25428  -0.25419
 Alpha  occ. eigenvalues --   -0.21917
 Alpha virt. eigenvalues --   -0.02514  -0.02506  -0.02414  -0.01175  -0.01168
 Alpha virt. eigenvalues --   -0.00311   0.05877   0.05893   0.08467   0.10087
 Alpha virt. eigenvalues --    0.10089   0.12848   0.13529   0.13531   0.14052

 Mulliken charges:
               1
     1  C   -0.199746
     2  C   -0.157020
     3  C   -0.111153
     4  C   -0.189598
     5  C   -0.178275
     6  C    0.349856
     7  F   -0.301183
     8  P    0.435661
     9  C   -0.077436
    10  C   -0.152967
    11  C   -0.184103
    12  C    0.391265
    13  C   -0.184605
    14  C   -0.159280
    15  F   -0.281845
    16  C   -0.120696
    17  C   -0.161744
    18  C   -0.190148
    19  C    0.352818
    20  C   -0.181570
    21  C   -0.181944
    22  F   -0.298831
    23  H    0.138072
    24  H    0.135332
    25  H    0.128791
    26  H    0.140608
    27  H    0.177978
    28  H    0.165029
    29  H    0.161988
    30  H    0.159257
    31  H    0.157427
    32  H    0.145467
    33  H    0.141577
    34  H    0.131018
 Sum of Mulliken charges =  -0.00000

 Dipole moment (field-independent basis, Debye):
    X=             -0.6880    Y=             -3.3661    Z=              1.4577  Tot=              3.7321
 Quadrupole moment (field-independent basis, Debye-Ang):
   XX=           -143.8057   YY=           -135.2209   ZZ=           -121.8367
   XY=              5.0980   XZ=             -0.6890   YZ=              0.6789

 Summary of Natural Population Analysis:

                                       Natural Population
                Natural  -----------------------------------------------
    Atom  No    Charge         Core      Valence    Rydberg      Total
 -----------------------------------------------------------------------
      C    1   -0.33101      1.99899     4.31575    0.01627     6.33101
      C    2   -0.18947      1.99902     4.17500    0.01545     6.18947
      C    3   -0.45915      1.99887     4.43558    0.02471     6.45915
      C    4   -0.27769      1.99900     4.25989    0.01880     6.27769
      C    5   -0.28397      1.99899     4.27016    0.01482     6.28397
      C    6    0.38912      1.99844     3.58456    0.02788     5.61088
      F    7   -0.33618      1.99994     7.33075    0.00549     9.33618
      P    8    1.21012      9.99756     3.74080    0.05152    13.78988
      C    9   -0.38647      1.99891     4.36259    0.02498     6.38647
      C   10   -0.19821      1.99901     4.18304    0.01616     6.19821
      C   11   -0.29700      1.99898     4.28330    0.01472     6.29700
      C   12    0.45562      1.99844     3.51886    0.02707     5.54438
      C   13   -0.30400      1.99899     4.29000    0.01501     6.30400
      C   14   -0.19075      1.99903     4.17651    0.01522     6.19075
      F   15   -0.31916      1.99994     7.31363    0.00559     9.31916
      C   16   -0.47190      1.99888     4.44632    0.02670     6.47190
      C   17   -0.21430      1.99900     4.19833    0.01696     6.21430
      C   18   -0.30593      1.99899     4.29166    0.01529     6.30593
      C   19    0.39225      1.99844     3.58144    0.02787     5.60775
      C   20   -0.29636      1.99899     4.28237    0.01500     6.29636
      C   21   -0.23282      1.99903     4.21729    0.01649     6.23282
      F   22   -0.33425      1.99994     7.32878    0.00553     9.33425
      H   23    0.24777      0.00000     0.75105    0.00118     0.75223
      H   24    0.23611      0.00000     0.76280    0.00108     0.76389
      H   25    0.23558      0.00000     0.76304    0.00138     0.76442
      H   26    0.24853      0.00000     0.75026    0.00121     0.75147
      H   27    0.26280      0.00000     0.73601    0.00119     0.73720
      H   28    0.26041      0.00000     0.73841    0.00117     0.73959
      H   29    0.25862      0.00000     0.74020    0.00117     0.74138
      H   30    0.24833      0.00000     0.75046    0.00122     0.75167
      H   31    0.25076      0.00000     0.74757    0.00167     0.74924
      H   32    0.25128      0.00000     0.74752    0.00120     0.74872
      H   33    0.24851      0.00000     0.75025    0.00124     0.75149
      H   34    0.23283      0.00000     0.76627    0.00090     0.76717
 =======================================================================
   * Total *   -0.00000     51.97740   109.59047    0.43213   162.00000

 Normal termination of Gaussian 16 at Sun Aug 23 17:38:04 2020.
