 Gaussian 16, Revision A.03,

 ---------------------------------
 # opt=CalcAll B3LYP/6-31G* scf=qc
 ---------------------------------

 -------------------
 Title Card Required
 -------------------
 Symbolic Z-matrix:
 Charge =  0 Multiplicity = 1

 SCF Done:  E(RB3LYP) =  -1029.60033826     a.u. after    9 cycles
 SCF Done:  E(RB3LYP) =  -1029.61917912     a.u. after   15 cycles
 SCF Done:  E(RB3LYP) =  -1029.62426307     a.u. after   19 cycles
 SCF Done:  E(RB3LYP) =  -1029.62487093     a.u. after   11 cycles
 SCF Done:  E(RB3LYP) =  -1029.62487472     a.u. after    7 cycles
 SCF Done:  E(RB3LYP) =  -1029.62487402     a.u. after    3 cycles
 SCF Done:  E(RB3LYP) =  -1029.62487285     a.u. after    2 cycles
 SCF Done:  E(RB3LYP) =  -1029.62487659     a.u. after    2 cycles
 Optimization completed.
    -- Stationary point found.
 Normal termination of Gaussian 16 at Sun Aug 23 13:22:58 2020.

 ----------------------------------------------------------------------
 # freq B3LYP/6-31G* scf=qc volume NMR pop=NPA density=current Geom=All
 Check Guess=Read
 ----------------------------------------------------------------------

 Structure from the checkpoint file:  "phosphine_9_conf12.chk"
 -------------------
 Title Card Required
 -------------------
 Charge =  0 Multiplicity = 1

 SCF Done:  E(RB3LYP) =  -1029.62487659     a.u. after    1 cycles

      1  C    Isotropic =    84.6734   Anisotropy =   120.9579

      2  C    Isotropic =    75.8217   Anisotropy =   132.6484

      3  C    Isotropic =    43.3785   Anisotropy =    89.1668

      4  O    Isotropic =    39.7693   Anisotropy =   300.7473

      5  C    Isotropic =    50.6466   Anisotropy =    98.8075

      6  P    Isotropic =   433.0181   Anisotropy =    38.0651

      7  C    Isotropic =    43.3939   Anisotropy =    89.2274

      8  C    Isotropic =    75.8507   Anisotropy =   132.6482

      9  C    Isotropic =    84.7230   Anisotropy =   121.0816

     10  C    Isotropic =    50.6575   Anisotropy =    98.8874

     11  O    Isotropic =    39.8262   Anisotropy =   300.8374

     12  C    Isotropic =    43.4014   Anisotropy =    89.2290

     13  C    Isotropic =    75.8506   Anisotropy =   132.6736

     14  C    Isotropic =    84.7138   Anisotropy =   121.0649

     15  C    Isotropic =    50.6741   Anisotropy =    98.8647

     16  O    Isotropic =    39.8124   Anisotropy =   300.8576

     17  H    Isotropic =    26.0655   Anisotropy =     2.3619

     18  H    Isotropic =    25.9740   Anisotropy =     7.4841

     19  H    Isotropic =    24.7880   Anisotropy =     3.5191

     20  H    Isotropic =    25.9769   Anisotropy =     7.4794

     21  H    Isotropic =    26.0638   Anisotropy =     2.3647

     22  H    Isotropic =    24.7864   Anisotropy =     3.5186

     23  H    Isotropic =    25.9763   Anisotropy =     7.4802

     24  H    Isotropic =    26.0651   Anisotropy =     2.3648

     25  H    Isotropic =    24.7879   Anisotropy =     3.5199

  Exact polarizability: 162.526  -0.009 162.517   0.007   0.006 116.214
 Approx polarizability: 231.355  -0.025 231.346   0.014   0.021 223.246

                      1                      2                      3
                      A                      A                      A
 Frequencies --     37.7171                37.9594                55.4186
 Red. masses --      4.8429                 4.8437                 4.5720
 Frc consts  --      0.0041                 0.0041                 0.0083
 IR Inten    --      0.1533                 0.1522                 0.1425

                      4                      5                      6
                      A                      A                      A
 Frequencies --     58.5970                58.6783                77.3431
 Red. masses --      5.3928                 5.3941                 5.3506
 Frc consts  --      0.0109                 0.0109                 0.0189
 IR Inten    --      0.3711                 0.3713                 0.4452

                      7                      8                      9
                      A                      A                      A
 Frequencies --    201.9727               222.2813               222.6101
 Red. masses --      5.6717                 5.6186                 5.6226
 Frc consts  --      0.1363                 0.1636                 0.1642
 IR Inten    --      0.5760                 2.6646                 2.6668

                     10                     11                     12
                      A                      A                      A
 Frequencies --    279.9150               294.5215               294.6342
 Red. masses --      8.1136                 6.4485                 6.4493
 Frc consts  --      0.3746                 0.3296                 0.3299
 IR Inten    --      2.9419                 2.5682                 2.5656

                     13                     14                     15
                      A                      A                      A
 Frequencies --    479.9618               495.3946               495.4762
 Red. masses --     10.9415                13.6847                13.6922
 Frc consts  --      1.4850                 1.9787                 1.9805
 IR Inten    --     22.5503                38.1941                38.1980

                     16                     17                     18
                      A                      A                      A
 Frequencies --    611.4810               611.4874               612.1017
 Red. masses --      3.2817                 3.2820                 3.2716
 Frc consts  --      0.7230                 0.7230                 0.7222
 IR Inten    --      9.0063                 9.0194                 3.6101

                     19                     20                     21
                      A                      A                      A
 Frequencies --    658.9832               659.1084               664.3848
 Red. masses --      6.1395                 6.1412                 6.4771
 Frc consts  --      1.5708                 1.5719                 1.6845
 IR Inten    --      5.8278                 5.8313                 0.6534

                     22                     23                     24
                      A                      A                      A
 Frequencies --    755.6307               756.0197               756.0533
 Red. masses --      1.2881                 1.2878                 1.2877
 Frc consts  --      0.4333                 0.4337                 0.4337
 IR Inten    --     33.7579                46.0205                46.1038

                     25                     26                     27
                      A                      A                      A
 Frequencies --    826.9519               827.1020               829.6568
 Red. masses --      1.2419                 1.2416                 1.2352
 Frc consts  --      0.5004                 0.5004                 0.5009
 IR Inten    --     12.0286                12.0456                 4.8272

                     28                     29                     30
                      A                      A                      A
 Frequencies --    879.0101               879.1617               882.5219
 Red. masses --      1.3005                 1.3001                 1.2978
 Frc consts  --      0.5921                 0.5921                 0.5955
 IR Inten    --      1.6241                 1.6330                 0.1977

                     31                     32                     33
                      A                      A                      A
 Frequencies --    900.0657               900.0820               900.1225
 Red. masses --      6.2502                 6.2553                 6.1221
 Frc consts  --      2.9833                 2.9858                 2.9225
 IR Inten    --      3.4425                 3.4455                 3.7603

                     34                     35                     36
                      A                      A                      A
 Frequencies --    924.2174               925.9397               925.9581
 Red. masses --      4.7035                 4.7165                 4.7161
 Frc consts  --      2.3671                 2.3825                 2.3824
 IR Inten    --     14.9236                 3.5931                 3.5885

                     37                     38                     39
                      A                      A                      A
 Frequencies --   1035.8455              1036.2758              1037.9452
 Red. masses --      1.4148                 1.4144                 1.3874
 Frc consts  --      0.8944                 0.8949                 0.8806
 IR Inten    --     13.9589                14.4510                51.6207

                     40                     41                     42
                      A                      A                      A
 Frequencies --   1104.0219              1104.1325              1106.2467
 Red. masses --      2.2020                 2.2055                 2.1814
 Frc consts  --      1.5813                 1.5841                 1.5729
 IR Inten    --      1.1584                 1.1658                 1.5349

                     43                     44                     45
                      A                      A                      A
 Frequencies --   1140.7280              1140.7522              1147.5477
 Red. masses --      5.6061                 5.6071                 4.7303
 Frc consts  --      4.2981                 4.2990                 3.6701
 IR Inten    --      2.4400                 2.4471                24.8364

                     46                     47                     48
                      A                      A                      A
 Frequencies --   1197.1788              1197.1939              1200.8671
 Red. masses --      2.2388                 2.2388                 2.4378
 Frc consts  --      1.8905                 1.8905                 2.0713
 IR Inten    --      9.3255                 9.3351                 1.1807

                     49                     50                     51
                      A                      A                      A
 Frequencies --   1249.5105              1249.7146              1250.2350
 Red. masses --      1.6652                 1.6654                 1.7044
 Frc consts  --      1.5318                 1.5325                 1.5696
 IR Inten    --     19.1795                18.5013                 5.1210

                     52                     53                     54
                      A                      A                      A
 Frequencies --   1417.8839              1417.8878              1419.6372
 Red. masses --      2.5684                 2.5685                 2.5345
 Frc consts  --      3.0423                 3.0424                 3.0096
 IR Inten    --      1.0919                 1.0939                 3.8827

                     55                     56                     57
                      A                      A                      A
 Frequencies --   1490.2858              1496.6244              1496.6460
 Red. masses --      5.5389                 5.4228                 5.4228
 Frc consts  --      7.2479                 7.1565                 7.1567
 IR Inten    --     15.7810                11.2233                11.2091

                     58                     59                     60
                      A                      A                      A
 Frequencies --   1605.0450              1607.3253              1607.3411
 Red. masses --      4.8343                 4.8699                 4.8677
 Frc consts  --      7.3376                 7.4128                 7.4095
 IR Inten    --      3.4985                 1.6371                 1.6301

                     61                     62                     63
                      A                      A                      A
 Frequencies --   3264.5327              3264.5505              3264.7115
 Red. masses --      1.0904                 1.0904                 1.0904
 Frc consts  --      6.8464                 6.8464                 6.8472
 IR Inten    --      5.2926                 5.2878                 1.4959

                     64                     65                     66
                      A                      A                      A
 Frequencies --   3280.1771              3280.2092              3280.3183
 Red. masses --      1.0971                 1.0972                 1.0971
 Frc consts  --      6.9551                 6.9555                 6.9557
 IR Inten    --      0.9859                 0.5239                 0.6192

                     67                     68                     69
                      A                      A                      A
 Frequencies --   3299.0533              3299.1165              3299.1516
 Red. masses --      1.1046                 1.1046                 1.1046
 Frc consts  --      7.0832                 7.0833                 7.0836
 IR Inten    --      2.8072                 3.1337                 0.7393

 - Thermochemistry -
 -------------------
 Temperature   298.150 Kelvin.  Pressure   1.00000 Atm.
 Atom     1 has atomic number  6 and mass  12.00000

 Molecular mass:   232.02893 amu.
 Principal axes and moments of inertia in atomic units:
                           1         2         3
     Eigenvalues --  3613.404643613.698006126.47375
           X            0.99995  -0.01004  -0.00000
           Y            0.01004   0.99995   0.00000
           Z            0.00000  -0.00000   1.00000
 This molecule is an asymmetric top.
 Rotational symmetry number  1.
 Warning -- assumption of classical behavior for rotation
           may cause significant error
 Rotational temperatures (Kelvin)      0.02397     0.02397     0.01414
 Rotational constants (GHZ):           0.49946     0.49942     0.29458
 Zero-point vibrational energy     480224.2 (Joules/Mol)
                                  114.77633 (Kcal/Mol)
 Warning -- explicit consideration of  18 degrees of freedom as
           vibrations may cause significant error
 Vibrational temperatures:     54.27    54.62    79.73    84.31    84.43
          (Kelvin)            111.28   290.59   319.81   320.29   402.74
                              423.75   423.91   690.56   712.76   712.88
                              879.78   879.79   880.68   948.13   948.31
                              955.90  1087.18  1087.74  1087.79  1189.80
                             1190.02  1193.69  1264.70  1264.92  1269.75
                             1294.99  1295.02  1295.08  1329.74  1332.22
                             1332.25  1490.35  1490.97  1493.37  1588.44
                             1588.60  1591.64  1641.25  1641.29  1651.07
                             1722.47  1722.50  1727.78  1797.77  1798.06
                             1798.81  2040.02  2040.02  2042.54  2144.19
                             2153.31  2153.34  2309.30  2312.58  2312.61
                             4696.93  4696.96  4697.19  4719.44  4719.49
                             4719.65  4746.60  4746.69  4746.74

 Zero-point correction=                           0.182908 (Hartree/Particle)
 Thermal correction to Energy=                    0.196493
 Thermal correction to Enthalpy=                  0.197437
 Thermal correction to Gibbs Free Energy=         0.139669
 Sum of electronic and zero-point Energies=          -1029.441969
 Sum of electronic and thermal Energies=             -1029.428384
 Sum of electronic and thermal Enthalpies=           -1029.427439
 Sum of electronic and thermal Free Energies=        -1029.485207

                     E (Thermal)             CV                S
                      KCal/Mol        Cal/Mol-Kelvin    Cal/Mol-Kelvin
 Total                  123.301             50.776            121.582
 Electronic               0.000              0.000              0.000
 Translational            0.889              2.981             42.227
 Rotational               0.889              2.981             32.748
 Vibrational            121.524             44.815             46.608
 Vibration     1          0.594              1.982              5.376
 Vibration     2          0.594              1.982              5.363
 Vibration     3          0.596              1.975              4.614
 Vibration     4          0.596              1.974              4.504
 Vibration     5          0.596              1.974              4.501
 Vibration     6          0.599              1.964              3.957
 Vibration     7          0.639              1.837              2.115
 Vibration     8          0.648              1.807              1.940
 Vibration     9          0.648              1.807              1.938
 Vibration    10          0.680              1.711              1.534
 Vibration    11          0.689              1.684              1.448
 Vibration    12          0.689              1.684              1.447
 Vibration    13          0.836              1.294              0.710
 Vibration    14          0.851              1.260              0.670
 Vibration    15          0.851              1.260              0.670
 Vibration    16          0.971              1.008              0.430
 Vibration    17          0.971              1.008              0.430
 Vibration    18          0.971              1.006              0.429

                           ! Non-Optimized Parameters !
 Normal termination of Gaussian 16 at Sun Aug 23 13:29:19 2020.
 Gaussian 16:  ES64L-G16RevA.03 25-Dec-2016

 ----------------------------------------------------------------------
 # TD(NStates=10, Root=1) B3LYP/6-31G* scf=qc volume pop=NPA density=cu
 rrent Geom=AllCheck Guess=Read
 ----------------------------------------------------------------------

 Structure from the checkpoint file:  "phosphine_9_conf13.chk"
 -------------------
 Title Card Required
 -------------------
 Charge =  0 Multiplicity = 1

                         Standard orientation:
 ---------------------------------------------------------------------
 Center     Atomic      Atomic             Coordinates (Angstroms)
 Number     Number       Type             X           Y           Z
 ---------------------------------------------------------------------
      1          6           0       -3.292439    1.231385    0.976135
      2          6           0       -2.176604    0.337916    0.912040
      3          6           0       -1.469508    0.666719   -0.214172
      4          8           0       -2.097960    1.710858   -0.854868
      5          6           0       -3.189173    2.040266   -0.115255
      6         15           0        0.000012    0.000017   -1.070921
      7          6           0        1.312172    0.939360   -0.214228
      8          6           0        1.380735    1.717185    0.911266
      9          6           0        2.712650    2.236197    0.975569
     10          6           0        3.361878    1.740950   -0.114981
     11          8           0        2.531000    0.960336   -0.854294
     12          6           0        0.157391   -1.605958   -0.214145
     13          6           0        0.796066   -2.054057    0.911798
     14          6           0        0.579849   -3.467075    0.976033
     15          6           0       -0.172863   -3.781914   -0.115009
     16          8           0       -0.433205   -2.672139   -0.854547
     17          1           0       -4.065816    1.263651    1.731151
     18          1           0       -1.926204   -0.452050    1.605815
     19          1           0       -3.782312    2.858619   -0.495295
     20          1           0        0.571157    1.896438    1.604459
     21          1           0        3.127200    2.890336    1.730192
     22          1           0        4.367425    1.844562   -0.494564
     23          1           0        1.355486   -1.442397    1.605333
     24          1           0        0.938733   -4.153042    1.730922
     25          1           0       -0.585447   -4.704658   -0.494827
 ---------------------------------------------------------------------

 SCF Done:  E(RB3LYP) =  -1029.62487659     a.u. after    1 cycles

 Excitation energies and oscillator strengths:

 Excited State   1:      Singlet-A      4.7328 eV  261.97 nm  f=0.1417  <S**2>=0.000
      60 -> 61         0.69339
 This state for optimization and/or second-order correction.
 Total Energy, E(TD-HF/TD-DFT) =  -1029.45095008
 Copying the excited state density for this state as the 1-particle RhoCI density.

 Excited State   2:      Singlet-A      4.7333 eV  261.94 nm  f=0.1418  <S**2>=0.000
      60 -> 62         0.69338

 Excited State   3:      Singlet-A      5.3047 eV  233.73 nm  f=0.0000  <S**2>=0.000
      58 -> 61        -0.26286
      58 -> 62        -0.42047
      59 -> 61         0.42216
      59 -> 62        -0.26292

 Excited State   4:      Singlet-A      5.3999 eV  229.60 nm  f=0.0002  <S**2>=0.000
      58 -> 61         0.24306
      58 -> 62        -0.13767
      59 -> 61         0.13914
      59 -> 62         0.24420
      60 -> 63         0.58164

 Excited State   5:      Singlet-A      5.4659 eV  226.83 nm  f=0.1683  <S**2>=0.000
      58 -> 61         0.40788
      58 -> 62        -0.26729
      59 -> 61        -0.26612
      59 -> 62        -0.40764

 Excited State   6:      Singlet-A      5.4661 eV  226.82 nm  f=0.1685  <S**2>=0.000
      58 -> 61         0.26703
      58 -> 62         0.40843
      59 -> 61         0.40709
      59 -> 62        -0.26637

 Excited State   7:      Singlet-A      6.0315 eV  205.56 nm  f=0.0118  <S**2>=0.000
      58 -> 61        -0.33240
      58 -> 62         0.21755
      59 -> 61        -0.21723
      59 -> 62        -0.33244
      60 -> 63         0.39000

 Excited State   8:      Singlet-A      6.1712 eV  200.91 nm  f=0.0561  <S**2>=0.000
      54 -> 61        -0.12513
      57 -> 61        -0.46756
      59 -> 63         0.48283

 Excited State   9:      Singlet-A      6.1715 eV  200.90 nm  f=0.0559  <S**2>=0.000
      54 -> 62         0.12505
      57 -> 62         0.46747
      58 -> 63         0.48279

 Excited State  10:      Singlet-A      6.2520 eV  198.31 nm  f=0.0683  <S**2>=0.000
      57 -> 61        -0.31434
      57 -> 62         0.10051
      58 -> 63        -0.19367
      59 -> 63        -0.36427
      60 -> 64         0.42743

 The electronic state is 1-A.
 Alpha  occ. eigenvalues --  -77.10443 -19.21552 -19.21551 -19.21551 -10.23919
 Alpha  occ. eigenvalues --  -10.23918 -10.23918 -10.23693 -10.23693 -10.23693
 Alpha  occ. eigenvalues --  -10.19076 -10.19076 -10.19075 -10.18942 -10.18942
 Alpha  occ. eigenvalues --  -10.18941  -6.57105  -4.73366  -4.73366  -4.72863
 Alpha  occ. eigenvalues --   -1.10749  -1.10667  -1.10667  -0.80185  -0.79752
 Alpha  occ. eigenvalues --   -0.79751  -0.77541  -0.73926  -0.73925  -0.64938
 Alpha  occ. eigenvalues --   -0.60003  -0.59870  -0.59870  -0.55795  -0.55795
 Alpha  occ. eigenvalues --   -0.54788  -0.53286  -0.53286  -0.48933  -0.45120
 Alpha  occ. eigenvalues --   -0.45120  -0.44656  -0.42744  -0.42744  -0.42348
 Alpha  occ. eigenvalues --   -0.40363  -0.40312  -0.40312  -0.38831  -0.38831
 Alpha  occ. eigenvalues --   -0.37510  -0.36230  -0.36230  -0.28134  -0.27886
 Alpha  occ. eigenvalues --   -0.27886  -0.27314  -0.23486  -0.23485  -0.20896
 Alpha virt. eigenvalues --   -0.01046  -0.01044   0.01545   0.05283   0.05284
 Alpha virt. eigenvalues --    0.07048   0.07976   0.07979   0.11850   0.11905
 Alpha virt. eigenvalues --    0.12865   0.12866   0.15040   0.15041   0.15578

 Mulliken charges:
               1
     1  C   -0.176162
     2  C   -0.196019
     3  C    0.050872
     4  O   -0.437369
     5  C    0.055905
     6  P    0.397534
     7  C    0.104026
     8  C   -0.160489
     9  C   -0.175084
    10  C    0.104106
    11  O   -0.408855
    12  C    0.112890
    13  C   -0.171643
    14  C   -0.173991
    15  C    0.104391
    16  O   -0.409482
    17  H    0.125198
    18  H    0.122493
    19  H    0.136022
    20  H    0.179605
    21  H    0.157954
    22  H    0.173175
    23  H    0.158926
    24  H    0.153991
    25  H    0.172005
 Sum of Mulliken charges =  -0.00000

 Dipole moment (field-independent basis, Debye):
    X=              3.5699    Y=             -1.2098    Z=              2.6718  Tot=              4.6202
 Quadrupole moment (field-independent basis, Debye-Ang):
   XX=            -89.8567   YY=            -82.9235   ZZ=            -96.8554
   XY=              5.1108   XZ=              0.9836   YZ=              0.1741

 Summary of Natural Population Analysis:

                                       Natural Population
                Natural  -----------------------------------------------
    Atom  No    Charge         Core      Valence    Rydberg      Total
 -----------------------------------------------------------------------
      C    1   -0.32963      1.99908     4.31734    0.01321     6.32963
      C    2   -0.35344      1.99890     4.33672    0.01782     6.35344
      C    3   -0.15454      1.99885     4.11749    0.03820     6.15454
      O    4   -0.48480      1.99975     6.47124    0.01381     8.48480
      C    5    0.06428      1.99905     3.91096    0.02571     5.93572
      P    6    1.01110      9.99757     3.92506    0.06627    13.98890
      C    7   -0.04649      1.99892     4.00852    0.03905     6.04649
      C    8   -0.28007      1.99893     4.26614    0.01499     6.28007
      C    9   -0.32029      1.99910     4.30812    0.01307     6.32029
      C   10    0.14382      1.99905     3.83259    0.02454     5.85618
      O   11   -0.45903      1.99975     6.44567    0.01361     8.45903
      C   12   -0.03652      1.99888     4.00212    0.03552     6.03652
      C   13   -0.30272      1.99892     4.28812    0.01569     6.30272
      C   14   -0.31915      1.99909     4.30713    0.01293     6.31915
      C   15    0.14201      1.99905     3.83634    0.02259     5.85799
      O   16   -0.45848      1.99974     6.43980    0.01893     8.45848
      H   17    0.23916      0.00000     0.76038    0.00047     0.76084
      H   18    0.23775      0.00000     0.76134    0.00090     0.76225
      H   19    0.21487      0.00000     0.78457    0.00055     0.78513
      H   20    0.26796      0.00000     0.73120    0.00084     0.73204
      H   21    0.25433      0.00000     0.74517    0.00050     0.74567
      H   22    0.23041      0.00000     0.76902    0.00057     0.76959
      H   23    0.25646      0.00000     0.74284    0.00070     0.74354
      H   24    0.25228      0.00000     0.74720    0.00052     0.74772
      H   25    0.23072      0.00000     0.76881    0.00047     0.76928
 =======================================================================
   * Total *    0.00000     39.98461    79.62392    0.39147   120.00000

 Normal termination of Gaussian 16 at Sun Aug 23 13:38:10 2020.
