 Gaussian 16, Revision A.03,

 ---------------------------------
 # opt=CalcAll B3LYP/6-31G* scf=qc
 ---------------------------------

 -------------------
 Title Card Required
 -------------------
 Symbolic Z-matrix:
 Charge =  0 Multiplicity = 1

 SCF Done:  E(RB3LYP) =  -1333.98413367     a.u. after    7 cycles
 SCF Done:  E(RB3LYP) =  -1333.98799715     a.u. after   17 cycles
 SCF Done:  E(RB3LYP) =  -1333.99638123     a.u. after   15 cycles
 SCF Done:  E(RB3LYP) =  -1333.99754955     a.u. after   19 cycles
 SCF Done:  E(RB3LYP) =  -1333.99862838     a.u. after   17 cycles
 SCF Done:  E(RB3LYP) =  -1333.99894503     a.u. after   15 cycles
 SCF Done:  E(RB3LYP) =  -1333.99898019     a.u. after   11 cycles
 SCF Done:  E(RB3LYP) =  -1333.99897406     a.u. after    5 cycles
 SCF Done:  E(RB3LYP) =  -1333.99898249     a.u. after    2 cycles
 SCF Done:  E(RB3LYP) =  -1333.99898024     a.u. after    2 cycles
 SCF Done:  E(RB3LYP) =  -1333.99897668     a.u. after    3 cycles
 SCF Done:  E(RB3LYP) =  -1333.99897906     a.u. after    2 cycles
 Optimization completed.
    -- Stationary point found.
 Normal termination of Gaussian 16 at Sun Aug 23 14:19:07 2020.

 ----------------------------------------------------------------------
 # freq B3LYP/6-31G* scf=qc volume NMR pop=NPA density=current Geom=All
 Check Guess=Read
 ----------------------------------------------------------------------

 Structure from the checkpoint file:  "phosphine_5_conf242.chk"
 -------------------
 Title Card Required
 -------------------
 Charge =  0 Multiplicity = 1

 SCF Done:  E(RB3LYP) =  -1333.99897906     a.u. after    1 cycles

      1  C    Isotropic =    79.9245   Anisotropy =   137.4265

      2  C    Isotropic =    59.0381   Anisotropy =   162.8074

      3  C    Isotropic =    61.6112   Anisotropy =   173.4614

      4  C    Isotropic =    60.7139   Anisotropy =   171.8542

      5  C    Isotropic =    80.0607   Anisotropy =   136.7136

      6  C    Isotropic =    32.6698   Anisotropy =    98.8138

      7  F    Isotropic =   295.8208   Anisotropy =   113.0712

      8  P    Isotropic =   366.1271   Anisotropy =    39.7391

      9  C    Isotropic =    61.5862   Anisotropy =   173.4956

     10  C    Isotropic =    60.7200   Anisotropy =   171.8443

     11  C    Isotropic =    80.0712   Anisotropy =   136.7212

     12  C    Isotropic =    32.6727   Anisotropy =    98.8164

     13  C    Isotropic =    79.9374   Anisotropy =   137.4318

     14  C    Isotropic =    59.0540   Anisotropy =   162.7904

     15  F    Isotropic =   295.8052   Anisotropy =   112.9935

     16  C    Isotropic =    61.6161   Anisotropy =   173.4722

     17  C    Isotropic =    59.0260   Anisotropy =   162.7748

     18  C    Isotropic =    79.9299   Anisotropy =   137.4274

     19  C    Isotropic =    32.6592   Anisotropy =    98.8363

     20  C    Isotropic =    80.0659   Anisotropy =   136.7193

     21  C    Isotropic =    60.6934   Anisotropy =   171.8641

     22  F    Isotropic =   295.7860   Anisotropy =   113.0658

     23  H    Isotropic =    25.3570   Anisotropy =     4.2612

     24  H    Isotropic =    24.6201   Anisotropy =     8.9252

     25  H    Isotropic =    25.3667   Anisotropy =    12.0259

     26  H    Isotropic =    25.4664   Anisotropy =     5.7364

     27  H    Isotropic =    25.3687   Anisotropy =    12.0250

     28  H    Isotropic =    25.4650   Anisotropy =     5.7401

     29  H    Isotropic =    25.3597   Anisotropy =     4.2567

     30  H    Isotropic =    24.6217   Anisotropy =     8.9218

     31  H    Isotropic =    24.6192   Anisotropy =     8.9152

     32  H    Isotropic =    25.3560   Anisotropy =     4.2610

     33  H    Isotropic =    25.4663   Anisotropy =     5.7364

     34  H    Isotropic =    25.3671   Anisotropy =    12.0134

  Exact polarizability: 226.248   0.042 226.139  -0.056   0.001 167.671
 Approx polarizability: 337.961   0.092 337.753  -0.125  -0.001 314.754

                      1                      2                      3
                      A                      A                      A
 Frequencies --     25.0755                25.3474                37.5364
 Red. masses --      4.1324                 4.1280                 8.7821
 Frc consts  --      0.0015                 0.0016                 0.0073
 IR Inten    --      0.2463                 0.2477                 0.1035

                      4                      5                      6
                      A                      A                      A
 Frequencies --     37.7179                40.6725                50.5739
 Red. masses --      8.7393                 3.7361                 9.9549
 Frc consts  --      0.0073                 0.0036                 0.0150
 IR Inten    --      0.1037                 0.0054                 0.1139

                      7                      8                      9
                      A                      A                      A
 Frequencies --    133.1649               145.5458               145.7249
 Red. masses --      8.0524                 8.3714                 8.3736
 Frc consts  --      0.0841                 0.1045                 0.1048
 IR Inten    --      0.0225                 0.5176                 0.5148

                     10                     11                     12
                      A                      A                      A
 Frequencies --    208.9491               219.1030               219.2048
 Red. masses --      8.0460                 6.9895                 6.9913
 Frc consts  --      0.2070                 0.1977                 0.1979
 IR Inten    --      0.2915                 0.5240                 0.5282

                     13                     14                     15
                      A                      A                      A
 Frequencies --    307.9309               336.1018               336.1257
 Red. masses --      8.4357                 8.3070                 8.3081
 Frc consts  --      0.4713                 0.5529                 0.5530
 IR Inten    --      1.0297                 0.0445                 0.0441

                     16                     17                     18
                      A                      A                      A
 Frequencies --    397.2209               404.1163               404.1402
 Red. masses --      7.7288                 8.0211                 8.0162
 Frc consts  --      0.7185                 0.7718                 0.7714
 IR Inten    --      0.3060                10.0619                10.0527

                     19                     20                     21
                      A                      A                      A
 Frequencies --    420.7294               420.8000               424.7231
 Red. masses --      3.2818                 3.2795                 3.1348
 Frc consts  --      0.3423                 0.3421                 0.3332
 IR Inten    --      1.1250                 1.1327                 0.0249

                     22                     23                     24
                      A                      A                      A
 Frequencies --    435.0938               435.1401               463.4959
 Red. masses --      6.1537                 6.1522                 6.6429
 Frc consts  --      0.6864                 0.6863                 0.8408
 IR Inten    --     19.0098                19.0464                 7.3663

                     25                     26                     27
                      A                      A                      A
 Frequencies --    533.1253               533.2303               535.6469
 Red. masses --      2.8109                 2.8114                 2.9073
 Frc consts  --      0.4707                 0.4710                 0.4915
 IR Inten    --     21.7995                21.8366                13.5060

                     28                     29                     30
                      A                      A                      A
 Frequencies --    608.0606               629.9792               630.0366
 Red. masses --      7.9080                 7.8297                 7.8297
 Frc consts  --      1.7227                 1.8308                 1.8312
 IR Inten    --      0.0088                 0.0371                 0.0388

                     31                     32                     33
                      A                      A                      A
 Frequencies --    648.2086               648.3851               648.4159
 Red. masses --      7.2774                 7.3784                 7.3793
 Frc consts  --      1.8016                 1.8276                 1.8280
 IR Inten    --      0.0058                 0.1262                 0.1279

                     34                     35                     36
                      A                      A                      A
 Frequencies --    715.2182               715.7283               715.7836
 Red. masses --      4.8118                 4.8293                 4.8310
 Frc consts  --      1.4502                 1.4576                 1.4583
 IR Inten    --      1.0049                 3.9699                 3.9847

                     37                     38                     39
                      A                      A                      A
 Frequencies --    835.7615               835.8261               836.8343
 Red. masses --      1.2632                 1.2618                 1.3282
 Frc consts  --      0.5199                 0.5194                 0.5480
 IR Inten    --      0.5538                 0.4838                11.3676

                     40                     41                     42
                      A                      A                      A
 Frequencies --    839.5403               839.5956               839.7889
 Red. masses --      3.2362                 3.2670                 4.0441
 Frc consts  --      1.3439                 1.3569                 1.6804
 IR Inten    --     62.3200                61.9668                17.4755

                     43                     44                     45
                      A                      A                      A
 Frequencies --    843.6788               843.7177               844.0654
 Red. masses --      1.9981                 1.9943                 1.6673
 Frc consts  --      0.8380                 0.8364                 0.6999
 IR Inten    --      9.9037                10.1981                12.3710

                     46                     47                     48
                      A                      A                      A
 Frequencies --    958.6571               958.7407               959.8656
 Red. masses --      1.2559                 1.2560                 1.2587
 Frc consts  --      0.6801                 0.6802                 0.6833
 IR Inten    --      0.1629                 0.1621                 0.3296

                     49                     50                     51
                      A                      A                      A
 Frequencies --    969.9485               970.0362               973.4241
 Red. masses --      1.3353                 1.3350                 1.3196
 Frc consts  --      0.7402                 0.7401                 0.7367
 IR Inten    --      0.0316                 0.0326                 0.3063

                     52                     53                     54
                      A                      A                      A
 Frequencies --   1034.7510              1034.7752              1035.1948
 Red. masses --      3.0289                 3.0312                 3.0231
 Frc consts  --      1.9107                 1.9123                 1.9087
 IR Inten    --      7.9679                 7.9266                 0.0924

                     55                     56                     57
                      A                      A                      A
 Frequencies --   1102.9384              1103.0803              1108.6677
 Red. masses --      3.6681                 3.6696                 3.5559
 Frc consts  --      2.6290                 2.6308                 2.5752
 IR Inten    --     19.2144                19.2492                 1.8978

                     58                     59                     60
                      A                      A                      A
 Frequencies --   1127.6483              1127.7479              1127.8823
 Red. masses --      1.3304                 1.3307                 1.3293
 Frc consts  --      0.9968                 0.9971                 0.9963
 IR Inten    --      1.0335                 0.8507                 7.0944

                     61                     62                     63
                      A                      A                      A
 Frequencies --   1195.3779              1195.5744              1199.4422
 Red. masses --      1.1842                 1.1850                 1.1799
 Frc consts  --      0.9969                 0.9980                 1.0001
 IR Inten    --     60.7659                61.1244                 2.4523

                     64                     65                     66
                      A                      A                      A
 Frequencies --   1285.3931              1285.4608              1286.1792
 Red. masses --      3.7508                 3.7465                 3.7883
 Frc consts  --      3.6513                 3.6475                 3.6923
 IR Inten    --    167.1255               167.2032                38.2814

                     67                     68                     69
                      A                      A                      A
 Frequencies --   1324.2228              1327.5494              1327.7055
 Red. masses --      2.7478                 2.2586                 2.3125
 Frc consts  --      2.8389                 2.3453                 2.4018
 IR Inten    --      8.8257                 3.9071                 3.8425

                     70                     71                     72
                      A                      A                      A
 Frequencies --   1336.8097              1336.9152              1337.1363
 Red. masses --      2.2902                 2.2188                 1.9507
 Frc consts  --      2.4114                 2.3366                 2.0549
 IR Inten    --      0.3294                 0.3461                 0.8930

                     73                     74                     75
                      A                      A                      A
 Frequencies --   1437.9743              1438.1739              1438.1967
 Red. masses --      2.9826                 2.9919                 2.9882
 Frc consts  --      3.6337                 3.6460                 3.6417
 IR Inten    --      7.5372                 2.3208                 2.2795

                     76                     77                     78
                      A                      A                      A
 Frequencies --   1545.6507              1545.7131              1546.5190
 Red. masses --      2.4067                 2.4045                 2.4445
 Frc consts  --      3.3876                 3.3847                 3.4448
 IR Inten    --    116.5713               116.6533                24.1754

                     79                     80                     81
                      A                      A                      A
 Frequencies --   1633.9892              1633.9947              1634.0139
 Red. masses --      6.9694                 6.9619                 6.9591
 Frc consts  --     10.9633                10.9516                10.9476
 IR Inten    --      9.3062                12.8929                12.5955

                     82                     83                     84
                      A                      A                      A
 Frequencies --   1653.5463              1653.5658              1654.4035
 Red. masses --      5.8045                 5.8073                 5.8775
 Frc consts  --      9.3507                 9.3555                 9.4782
 IR Inten    --     82.5636                82.6871                22.5333

                     85                     86                     87
                      A                      A                      A
 Frequencies --   3188.7697              3188.8890              3188.9610
 Red. masses --      1.0892                 1.0892                 1.0892
 Frc consts  --      6.5254                 6.5258                 6.5260
 IR Inten    --      5.2803                 4.5652                 3.5615

                     88                     89                     90
                      A                      A                      A
 Frequencies --   3205.7108              3205.7748              3206.4077
 Red. masses --      1.0878                 1.0878                 1.0879
 Frc consts  --      6.5865                 6.5867                 6.5898
 IR Inten    --      1.9969                 2.0151                 0.3697

                     91                     92                     93
                      A                      A                      A
 Frequencies --   3221.8803              3221.9120              3222.1381
 Red. masses --      1.0942                 1.0942                 1.0941
 Frc consts  --      6.6922                 6.6922                 6.6924
 IR Inten    --      3.2559                 3.3005                11.8836

                     94                     95                     96
                      A                      A                      A
 Frequencies --   3222.6102              3222.6727              3222.8775
 Red. masses --      1.0937                 1.0936                 1.0939
 Frc consts  --      6.6919                 6.6919                 6.6944
 IR Inten    --     12.0195                12.0853                 0.2647

 - Thermochemistry -
 -------------------
 Temperature   298.150 Kelvin.  Pressure   1.00000 Atm.
 Atom     1 has atomic number  6 and mass  12.00000

 Molecular mass:   316.06287 amu.
 Principal axes and moments of inertia in atomic units:
                           1         2         3
     Eigenvalues --  8316.390428319.65221**********
           X            0.99972   0.02346  -0.00002
           Y           -0.02346   0.99972   0.00000
           Z            0.00002  -0.00000   1.00000
 This molecule is an asymmetric top.
 Rotational symmetry number  1.
 Warning -- assumption of classical behavior for rotation
           may cause significant error
 Rotational temperatures (Kelvin)      0.01041     0.01041     0.00597
 Rotational constants (GHZ):           0.21701     0.21693     0.12430
 Zero-point vibrational energy     655316.3 (Joules/Mol)
                                  156.62436 (Kcal/Mol)
 Warning -- explicit consideration of  28 degrees of freedom as
           vibrations may cause significant error
 Vibrational temperatures:     36.08    36.47    54.01    54.27    58.52
          (Kelvin)             72.76   191.59   209.41   209.67   300.63
                              315.24   315.39   443.04   483.58   483.61
                              571.51   581.43   581.47   605.34   605.44
                              611.08   626.00   626.07   666.87   767.05
                              767.20   770.68   874.86   906.40   906.48
                              932.63   932.88   932.93  1029.04  1029.77
                             1029.85  1202.47  1202.57  1204.02  1207.91
                             1207.99  1208.27  1213.87  1213.92  1214.42
                             1379.29  1379.41  1381.03  1395.54  1395.67
                             1400.54  1488.78  1488.81  1489.41  1586.88
                             1587.09  1595.13  1622.43  1622.58  1622.77
                             1719.88  1720.16  1725.73  1849.39  1849.49
                             1850.52  1905.26  1910.05  1910.27  1923.37
                             1923.52  1923.84  2068.92  2069.21  2069.24
                             2223.85  2223.94  2225.10  2350.95  2350.95
                             2350.98  2379.08  2379.11  2380.32  4587.93
                             4588.10  4588.20  4612.30  4612.39  4613.31
                             4635.57  4635.61  4635.94  4636.62  4636.71
                             4637.00

 Zero-point correction=                           0.249597 (Hartree/Particle)
 Thermal correction to Energy=                    0.268020
 Thermal correction to Enthalpy=                  0.268964
 Thermal correction to Gibbs Free Energy=         0.199622
 Sum of electronic and zero-point Energies=          -1333.749382
 Sum of electronic and thermal Energies=             -1333.730959
 Sum of electronic and thermal Enthalpies=           -1333.730015
 Sum of electronic and thermal Free Energies=        -1333.799357

                     E (Thermal)             CV                S
                      KCal/Mol        Cal/Mol-Kelvin    Cal/Mol-Kelvin
 Total                  168.185             71.392            145.942
 Electronic               0.000              0.000              0.000
 Translational            0.889              2.981             43.148
 Rotational               0.889              2.981             35.262
 Vibrational            166.408             65.430             67.532
 Vibration     1          0.593              1.985              6.185
 Vibration     2          0.593              1.985              6.164
 Vibration     3          0.594              1.982              5.385
 Vibration     4          0.594              1.982              5.375
 Vibration     5          0.594              1.981              5.226
 Vibration     6          0.595              1.977              4.795
 Vibration     7          0.613              1.920              2.900
 Vibration     8          0.617              1.907              2.730
 Vibration     9          0.617              1.907              2.727
 Vibration    10          0.642              1.827              2.053
 Vibration    11          0.647              1.812              1.966
 Vibration    12          0.647              1.812              1.966
 Vibration    13          0.698              1.659              1.373
 Vibration    14          0.717              1.603              1.231
 Vibration    15          0.717              1.603              1.230
 Vibration    16          0.764              1.476              0.973
 Vibration    17          0.769              1.461              0.948
 Vibration    18          0.769              1.461              0.948
 Vibration    19          0.783              1.425              0.889
 Vibration    20          0.783              1.425              0.889
 Vibration    21          0.787              1.416              0.876
 Vibration    22          0.796              1.394              0.842
 Vibration    23          0.796              1.394              0.842
 Vibration    24          0.821              1.331              0.756
 Vibration    25          0.888              1.177              0.580
 Vibration    26          0.888              1.177              0.580
 Vibration    27          0.891              1.171              0.575
 Vibration    28          0.967              1.015              0.436

                           ! Non-Optimized Parameters !
 Normal termination of Gaussian 16 at Sun Aug 23 14:34:07 2020.
 Gaussian 16:  ES64L-G16RevA.03 25-Dec-2016

 ----------------------------------------------------------------------
 # TD(NStates=10, Root=1) B3LYP/6-31G* scf=qc volume pop=NPA density=cu
 rrent Geom=AllCheck Guess=Read
 ----------------------------------------------------------------------

 Structure from the checkpoint file:  "phosphine_5_conf243.chk"
 -------------------
 Title Card Required
 -------------------
 Charge =  0 Multiplicity = 1

                         Standard orientation:
 ---------------------------------------------------------------------
 Center     Atomic      Atomic             Coordinates (Angstroms)
 Number     Number       Type             X           Y           Z
 ---------------------------------------------------------------------
      1          6           0        3.819256   -1.361129    0.698014
      2          6           0        2.680404   -0.746683    1.215516
      3          6           0        1.435070   -0.853722    0.571889
      4          6           0        1.355860   -1.619139   -0.602387
      5          6           0        2.483618   -2.250886   -1.128434
      6          6           0        3.698699   -2.106889   -0.469389
      7          9           0        4.792327   -2.714767   -0.972832
      8         15           0       -0.000027   -0.000311    1.374890
      9          6           0        0.021670    1.669229    0.571902
     10          6           0        0.724578    1.983217   -0.602149
     11          6           0        0.708008    3.275702   -1.128345
     12          6           0       -0.024479    4.256058   -0.469665
     13          6           0       -0.731021    3.987699    0.697517
     14          6           0       -0.693924    2.694259    1.215173
     15          9           0       -0.044676    5.507064   -0.973230
     16          6           0       -1.456808   -0.816019    0.571805
     17          6           0       -1.989202   -1.946018    1.216919
     18          6           0       -3.090975   -2.624565    0.699192
     19          6           0       -3.674179   -2.148813   -0.470010
     20          6           0       -3.188857   -1.026502   -1.130638
     21          6           0       -2.077750   -0.366189   -0.604284
     22          9           0       -4.747593   -2.791509   -0.973702
     23          1           0        4.784395   -1.281114    1.187558
     24          1           0        2.760642   -0.177705    2.138548
     25          1           0        0.404101   -1.731302   -1.112430
     26          1           0        2.431845   -2.847739   -2.033442
     27          1           0        1.297794    1.214964   -1.111843
     28          1           0        1.251119    3.529201   -2.033177
     29          1           0       -1.283051    4.783584    1.186781
     30          1           0       -1.227134    2.479366    2.138033
     31          1           0       -1.538343   -2.298760    2.141285
     32          1           0       -3.506184   -3.498848    1.189886
     33          1           0       -3.678115   -0.684379   -2.037023
     34          1           0       -1.696998    0.512660   -1.115394
 ---------------------------------------------------------------------

 SCF Done:  E(RB3LYP) =  -1333.99897906     a.u. after    1 cycles

 Excitation energies and oscillator strengths:

 Excited State   1:      Singlet-A      4.5736 eV  271.09 nm  f=0.1355  <S**2>=0.000
      81 -> 82         0.69349
 This state for optimization and/or second-order correction.
 Total Energy, E(TD-HF/TD-DFT) =  -1333.83090397
 Copying the excited state density for this state as the 1-particle RhoCI density.

 Excited State   2:      Singlet-A      4.5750 eV  271.01 nm  f=0.1361  <S**2>=0.000
      81 -> 83         0.69355

 Excited State   3:      Singlet-A      4.5853 eV  270.40 nm  f=0.0089  <S**2>=0.000
      81 -> 84         0.68922

 Excited State   4:      Singlet-A      4.9050 eV  252.77 nm  f=0.0017  <S**2>=0.000
      81 -> 85         0.67615

 Excited State   5:      Singlet-A      4.9057 eV  252.74 nm  f=0.0017  <S**2>=0.000
      81 -> 86         0.67600

 Excited State   6:      Singlet-A      5.2387 eV  236.67 nm  f=0.0075  <S**2>=0.000
      79 -> 82        -0.10063
      80 -> 83         0.10099
      81 -> 87         0.67236

 Excited State   7:      Singlet-A      5.4174 eV  228.86 nm  f=0.0000  <S**2>=0.000
      75 -> 84        -0.14246
      77 -> 82         0.17508
      78 -> 83         0.16729
      79 -> 82         0.29580
      79 -> 83         0.28049
      79 -> 85         0.14737
      80 -> 82         0.27997
      80 -> 83        -0.29359
      80 -> 86        -0.14211

 Excited State   8:      Singlet-A      5.4451 eV  227.70 nm  f=0.0020  <S**2>=0.000
      76 -> 82        -0.21107
      77 -> 83         0.17195
      77 -> 87        -0.11988
      78 -> 82         0.17340
      79 -> 84        -0.29099
      79 -> 85        -0.14843
      80 -> 84         0.40878
      80 -> 86        -0.15245
      81 -> 85         0.12389

 Excited State   9:      Singlet-A      5.4456 eV  227.68 nm  f=0.0021  <S**2>=0.000
      76 -> 83        -0.20986
      77 -> 82         0.16866
      78 -> 83        -0.17531
      78 -> 87        -0.11988
      79 -> 84         0.40707
      79 -> 86         0.15076
      80 -> 84         0.29392
      80 -> 85        -0.14961
      81 -> 86         0.12431

 Excited State  10:      Singlet-A      5.6625 eV  218.96 nm  f=0.0009  <S**2>=0.000
      75 -> 84         0.16541
      76 -> 84         0.10204
      77 -> 82        -0.24307
      78 -> 83        -0.23739
      79 -> 82         0.11177
      79 -> 83         0.25242
      79 -> 85        -0.22287
      79 -> 86         0.11919
      80 -> 82         0.31104
      80 -> 83        -0.10263
      80 -> 85         0.11968
      80 -> 86         0.22987

 The electronic state is 1-A.
 Alpha  occ. eigenvalues --  -77.09286 -24.70934 -24.70932 -24.70931 -10.27930
 Alpha  occ. eigenvalues --  -10.27928 -10.27927 -10.20802 -10.20801 -10.20800
 Alpha  occ. eigenvalues --  -10.20701 -10.20700 -10.20699 -10.20479 -10.20478
 Alpha  occ. eigenvalues --  -10.20478 -10.20318 -10.20316 -10.20315 -10.20310
 Alpha  occ. eigenvalues --  -10.20309 -10.20308  -6.55987  -4.72248  -4.72248
 Alpha  occ. eigenvalues --   -4.71744  -1.22113  -1.22111  -1.22110  -0.87208
 Alpha  occ. eigenvalues --   -0.86555  -0.86554  -0.77803  -0.76322  -0.76286
 Alpha  occ. eigenvalues --   -0.76285  -0.74868  -0.74866  -0.65458  -0.63137
 Alpha  occ. eigenvalues --   -0.62959  -0.62959  -0.60998  -0.60997  -0.57074
 Alpha  occ. eigenvalues --   -0.54665  -0.54664  -0.54254  -0.49447  -0.49445
 Alpha  occ. eigenvalues --   -0.49381  -0.48018  -0.48018  -0.46310  -0.46309
 Alpha  occ. eigenvalues --   -0.46296  -0.45864  -0.44922  -0.44921  -0.43856
 Alpha  occ. eigenvalues --   -0.43706  -0.43705  -0.42082  -0.40156  -0.40108
 Alpha  occ. eigenvalues --   -0.40108  -0.37160  -0.37158  -0.36440  -0.34997
 Alpha  occ. eigenvalues --   -0.34997  -0.34950  -0.33923  -0.33923  -0.27234
 Alpha  occ. eigenvalues --   -0.26850  -0.26599  -0.26597  -0.25425  -0.25421
 Alpha  occ. eigenvalues --   -0.21916
 Alpha virt. eigenvalues --   -0.02511  -0.02507  -0.02416  -0.01173  -0.01170
 Alpha virt. eigenvalues --   -0.00312   0.05881   0.05888   0.08468   0.10088
 Alpha virt. eigenvalues --    0.10088   0.12849   0.13529   0.13530   0.14052

 Mulliken charges:
               1
     1  C   -0.180509
     2  C   -0.179422
     3  C   -0.110965
     4  C   -0.156512
     5  C   -0.190221
     6  C    0.363802
     7  F   -0.293918
     8  P    0.435425
     9  C   -0.077924
    10  C   -0.159453
    11  C   -0.182793
    12  C    0.387944
    13  C   -0.188574
    14  C   -0.156197
    15  F   -0.283727
    16  C   -0.120672
    17  C   -0.162470
    18  C   -0.196659
    19  C    0.341950
    20  C   -0.179361
    21  C   -0.188087
    22  F   -0.304277
    23  H    0.147184
    24  H    0.137740
    25  H    0.167436
    26  H    0.151264
    27  H    0.169398
    28  H    0.162102
    29  H    0.159496
    30  H    0.157835
    31  H    0.130045
    32  H    0.134987
    33  H    0.137762
    34  H    0.127371
 Sum of Mulliken charges =  -0.00000

 Dipole moment (field-independent basis, Debye):
    X=              1.7568    Y=              2.7708    Z=              1.4561  Tot=              3.5894
 Quadrupole moment (field-independent basis, Debye-Ang):
   XX=           -144.9885   YY=           -134.0297   ZZ=           -121.8417
   XY=             -3.2903   XZ=             -0.8982   YZ=             -0.0467

 Summary of Natural Population Analysis:

                                       Natural Population
                Natural  -----------------------------------------------
    Atom  No    Charge         Core      Valence    Rydberg      Total
 -----------------------------------------------------------------------
      C    1   -0.29492      1.99899     4.28106    0.01487     6.29492
      C    2   -0.22724      1.99903     4.21192    0.01629     6.22724
      C    3   -0.45163      1.99889     4.42604    0.02669     6.45163
      C    4   -0.20265      1.99901     4.18702    0.01662     6.20265
      C    5   -0.30661      1.99899     4.29241    0.01521     6.30661
      C    6    0.41024      1.99844     3.56364    0.02768     5.58976
      F    7   -0.32989      1.99994     7.32440    0.00556     9.32989
      P    8    1.20999      9.99756     3.74089    0.05155    13.79001
      C    9   -0.38882      1.99890     4.36542    0.02450     6.38882
      C   10   -0.21308      1.99901     4.19745    0.01662     6.21308
      C   11   -0.29448      1.99898     4.28078    0.01471     6.29448
      C   12    0.45070      1.99844     3.52371    0.02714     5.54930
      C   13   -0.31128      1.99899     4.29696    0.01533     6.31128
      C   14   -0.18610      1.99903     4.17190    0.01517     6.18610
      F   15   -0.32079      1.99994     7.31527    0.00558     9.32079
      C   16   -0.47763      1.99887     4.45353    0.02523     6.47763
      C   17   -0.19949      1.99902     4.18476    0.01571     6.19949
      C   18   -0.32477      1.99900     4.30971    0.01606     6.32477
      C   19    0.37546      1.99844     3.59808    0.02802     5.62454
      C   20   -0.28540      1.99899     4.27152    0.01488     6.28540
      C   21   -0.27417      1.99900     4.25649    0.01868     6.27417
      F   22   -0.33897      1.99994     7.33355    0.00548     9.33897
      H   23    0.25114      0.00000     0.74762    0.00124     0.74886
      H   24    0.23627      0.00000     0.76278    0.00096     0.76373
      H   25    0.25642      0.00000     0.74203    0.00155     0.74358
      H   26    0.25405      0.00000     0.74476    0.00119     0.74595
      H   27    0.25813      0.00000     0.74067    0.00120     0.74187
      H   28    0.25896      0.00000     0.73986    0.00118     0.74104
      H   29    0.25764      0.00000     0.74119    0.00117     0.74236
      H   30    0.24790      0.00000     0.75086    0.00124     0.75210
      H   31    0.23311      0.00000     0.76588    0.00101     0.76689
      H   32    0.24613      0.00000     0.75268    0.00119     0.75387
      H   33    0.24721      0.00000     0.75158    0.00121     0.75279
      H   34    0.23458      0.00000     0.76394    0.00148     0.76542
 =======================================================================
   * Total *    0.00000     51.97740   109.59038    0.43222   162.00000

 Normal termination of Gaussian 16 at Sun Aug 23 14:50:09 2020.
