 Gaussian 16, Revision A.03,

 ---------------------------------
 # opt=CalcAll B3LYP/6-31G* scf=qc
 ---------------------------------

 -------------------
 Title Card Required
 -------------------
 Symbolic Z-matrix:
 Charge =  0 Multiplicity = 1

 SCF Done:  E(RB3LYP) =  -844.559541680     a.u. after    8 cycles
 SCF Done:  E(RB3LYP) =  -844.563650687     a.u. after   17 cycles
 SCF Done:  E(RB3LYP) =  -844.564206485     a.u. after   15 cycles
 SCF Done:  E(RB3LYP) =  -844.564328823     a.u. after    6 cycles
 SCF Done:  E(RB3LYP) =  -844.564329556     a.u. after    2 cycles
 Optimization completed.
    -- Stationary point found.
 Normal termination of Gaussian 16 at Sun Aug 23 11:54:02 2020.

 ----------------------------------------------------------------------
 # freq B3LYP/6-31G* scf=qc volume NMR pop=NPA density=current Geom=All
 Check Guess=Read
 ----------------------------------------------------------------------

 Structure from the checkpoint file:  "phosphine_3_conf32.chk"
 -------------------
 Title Card Required
 -------------------
 Charge =  0 Multiplicity = 1

 SCF Done:  E(RB3LYP) =  -844.564329556     a.u. after    1 cycles

      1  C    Isotropic =   173.0318   Anisotropy =    19.3270

      2  H    Isotropic =    30.7059   Anisotropy =     7.2645

      3  H    Isotropic =    31.0015   Anisotropy =     8.5260

      4  H    Isotropic =    30.7457   Anisotropy =    10.5229

      5  P    Isotropic =   385.0761   Anisotropy =    60.2611

      6  C    Isotropic =    51.8710   Anisotropy =   182.8437

      7  C    Isotropic =    62.8799   Anisotropy =   171.1448

      8  C    Isotropic =    68.2792   Anisotropy =   164.2384

      9  C    Isotropic =    67.5075   Anisotropy =   168.2983

     10  C    Isotropic =    69.1690   Anisotropy =   163.2074

     11  C    Isotropic =    60.5066   Anisotropy =   159.8430

     12  C    Isotropic =    52.7971   Anisotropy =   183.2140

     13  C    Isotropic =    67.9806   Anisotropy =   167.4436

     14  C    Isotropic =    68.8479   Anisotropy =   164.0570

     15  C    Isotropic =    69.4129   Anisotropy =   165.2723

     16  C    Isotropic =    68.8095   Anisotropy =   164.5521

     17  C    Isotropic =    62.6027   Anisotropy =   166.8319

     18  H    Isotropic =    25.1725   Anisotropy =    11.3378

     19  H    Isotropic =    25.0796   Anisotropy =     5.9095

     20  H    Isotropic =    25.0154   Anisotropy =     3.8946

     21  H    Isotropic =    24.9616   Anisotropy =     4.4625

     22  H    Isotropic =    24.4818   Anisotropy =     7.9913

     23  H    Isotropic =    24.8795   Anisotropy =     9.9831

     24  H    Isotropic =    24.9264   Anisotropy =     4.8986

     25  H    Isotropic =    25.0794   Anisotropy =     3.7304

     26  H    Isotropic =    25.0468   Anisotropy =     4.9711

     27  H    Isotropic =    24.9776   Anisotropy =    10.0486

  Exact polarizability: 201.374   1.887 138.257 -20.878  -1.685 117.918
 Approx polarizability: 285.412   3.953 225.367 -48.277  -5.110 209.258

                      1                      2                      3
                      A                      A                      A
 Frequencies --     19.6368                29.8750                55.9402
 Red. masses --      3.7900                 3.8324                 5.0669
 Frc consts  --      0.0009                 0.0020                 0.0093
 IR Inten    --      0.2511                 0.0663                 0.0708

                      4                      5                      6
                      A                      A                      A
 Frequencies --    117.5472               178.5713               186.8994
 Red. masses --      3.3695                 3.4613                 3.6202
 Frc consts  --      0.0274                 0.0650                 0.0745
 IR Inten    --      0.5141                 0.7293                 0.2037

                      7                      8                      9
                      A                      A                      A
 Frequencies --    233.2930               246.4074               267.1093
 Red. masses --      1.8303                 1.6579                 3.6694
 Frc consts  --      0.0587                 0.0593                 0.1543
 IR Inten    --      0.4893                 0.3055                 0.1579

                     10                     11                     12
                      A                      A                      A
 Frequencies --    323.1838               396.5519               408.1540
 Red. masses --      4.4967                 5.9082                 3.1697
 Frc consts  --      0.2767                 0.5474                 0.3111
 IR Inten    --      2.2771                 2.7530                 2.8937

                     13                     14                     15
                      A                      A                      A
 Frequencies --    412.6929               419.7975               488.2839
 Red. masses --      3.0643                 6.9756                 3.5146
 Frc consts  --      0.3075                 0.7243                 0.4937
 IR Inten    --      0.6159                 8.2500                10.4608

                     16                     17                     18
                      A                      A                      A
 Frequencies --    515.9224               632.6642               633.0547
 Red. masses --      3.9376                 6.4093                 6.4012
 Frc consts  --      0.6175                 1.5115                 1.5114
 IR Inten    --     12.4219                 0.1764                 0.0924

                     19                     20                     21
                      A                      A                      A
 Frequencies --    674.2408               702.6913               705.0910
 Red. masses --      5.3395                 6.1951                 4.9198
 Frc consts  --      1.4302                 1.8023                 1.4411
 IR Inten    --      8.3381                 0.9778                 3.2645

                     22                     23                     24
                      A                      A                      A
 Frequencies --    712.0468               713.7069               757.4358
 Red. masses --      2.2697                 2.0655                 1.5778
 Frc consts  --      0.6780                 0.6199                 0.5333
 IR Inten    --     20.8255                26.9400                35.5752

                     25                     26                     27
                      A                      A                      A
 Frequencies --    763.0298               861.1848               867.3678
 Red. masses --      1.7190                 1.2514                 1.2452
 Frc consts  --      0.5897                 0.5468                 0.5520
 IR Inten    --     13.6466                 0.1858                 0.0192

                     28                     29                     30
                      A                      A                      A
 Frequencies --    910.2573               919.8292               922.6503
 Red. masses --      1.3086                 1.2937                 1.3544
 Frc consts  --      0.6388                 0.6449                 0.6793
 IR Inten    --     24.9342                28.3932                 1.4396

                     31                     32                     33
                      A                      A                      A
 Frequencies --    936.6947               969.7310               977.1772
 Red. masses --      1.3620                 1.3597                 1.3601
 Frc consts  --      0.7041                 0.7534                 0.7652
 IR Inten    --      4.6351                 0.0626                 0.1019

                     34                     35                     36
                      A                      A                      A
 Frequencies --    996.8390              1001.2348              1015.2388
 Red. masses --      1.2506                 1.2591                 6.2350
 Frc consts  --      0.7322                 0.7437                 3.7863
 IR Inten    --      0.1418                 0.0536                 1.2338

                     37                     38                     39
                      A                      A                      A
 Frequencies --   1015.9823              1052.1494              1054.4479
 Red. masses --      6.2498                 3.2219                 3.1932
 Frc consts  --      3.8009                 2.1015                 2.0918
 IR Inten    --      2.5436                 1.0752                 1.1859

                     40                     41                     42
                      A                      A                      A
 Frequencies --   1106.2685              1112.2030              1113.0527
 Red. masses --      1.7292                 1.7332                 2.4339
 Frc consts  --      1.2469                 1.2632                 1.7766
 IR Inten    --      1.6968                 2.4131                13.3151

                     43                     44                     45
                      A                      A                      A
 Frequencies --   1117.9867              1193.4827              1194.2046
 Red. masses --      2.5286                 1.1026                 1.0987
 Frc consts  --      1.8621                 0.9254                 0.9232
 IR Inten    --      2.1467                 0.0064                 0.0648

                     46                     47                     48
                      A                      A                      A
 Frequencies --   1216.9076              1223.4347              1323.7538
 Red. masses --      1.1444                 1.1502                 3.2573
 Frc consts  --      0.9985                 1.0143                 3.3629
 IR Inten    --      3.9194                 0.6687                 2.3628

                     49                     50                     51
                      A                      A                      A
 Frequencies --   1331.6632              1351.3829              1363.1528
 Red. masses --      3.3529                 1.2959                 1.7089
 Frc consts  --      3.5031                 1.3943                 1.8710
 IR Inten    --      2.8879                 2.1923                 1.4883

                     52                     53                     54
                      A                      A                      A
 Frequencies --   1371.5828              1479.5017              1482.4642
 Red. masses --      1.5139                 2.0991                 2.0754
 Frc consts  --      1.6780                 2.7071                 2.6873
 IR Inten    --      2.1487                12.2413                 5.4953

                     55                     56                     57
                      A                      A                      A
 Frequencies --   1501.1162              1502.1984              1530.8756
 Red. masses --      1.0619                 1.0628                 2.0236
 Frc consts  --      1.4098                 1.4130                 2.7942
 IR Inten    --      4.1876                16.7240                 4.9360

                     58                     59                     60
                      A                      A                      A
 Frequencies --   1534.8452              1630.0431              1632.4683
 Red. masses --      1.9732                 5.0204                 5.1791
 Frc consts  --      2.7387                 7.8594                 8.1320
 IR Inten    --      6.4893                 1.1107                 0.2805

                     61                     62                     63
                      A                      A                      A
 Frequencies --   1646.7319              1649.4824              3049.4879
 Red. masses --      5.3167                 5.2603                 1.0329
 Frc consts  --      8.4945                 8.4325                 5.6592
 IR Inten    --      1.7969                 3.4137                12.5592

                     64                     65                     66
                      A                      A                      A
 Frequencies --   3131.3071              3138.0911              3174.8639
 Red. masses --      1.1045                 1.1020                 1.0855
 Frc consts  --      6.3805                 6.3940                 6.4465
 IR Inten    --     12.2624                 8.6829                 3.7891

                     67                     68                     69
                      A                      A                      A
 Frequencies --   3176.3154              3181.6167              3182.0134
 Red. masses --      1.0847                 1.0871                 1.0872
 Frc consts  --      6.4480                 6.4835                 6.4859
 IR Inten    --      1.4583                 0.5337                 0.2236

                     70                     71                     72
                      A                      A                      A
 Frequencies --   3190.9871              3192.1163              3198.2406
 Red. masses --      1.0907                 1.0916                 1.0939
 Frc consts  --      6.5433                 6.5537                 6.5927
 IR Inten    --      9.7740                21.0568                33.2849

                     73                     74                     75
                      A                      A                      A
 Frequencies --   3203.7182              3207.1157              3210.6176
 Red. masses --      1.0936                 1.0979                 1.0954
 Frc consts  --      6.6135                 6.6536                 6.6527
 IR Inten    --     34.2082                31.2919                18.4670

 - Thermochemistry -
 -------------------
 Temperature   298.150 Kelvin.  Pressure   1.00000 Atm.
 Atom     1 has atomic number  6 and mass  12.00000

 Molecular mass:   200.07549 amu.
 Principal axes and moments of inertia in atomic units:
                           1         2         3
     Eigenvalues --  1569.843834673.702615299.61710
           X            0.99999   0.00072  -0.00536
           Y           -0.00048   0.99899   0.04503
           Z            0.00538  -0.04503   0.99897
 This molecule is an asymmetric top.
 Rotational symmetry number  1.
 Warning -- assumption of classical behavior for rotation
           may cause significant error
 Rotational temperatures (Kelvin)      0.05517     0.01853     0.01634
 Rotational constants (GHZ):           1.14963     0.38615     0.34054
 Zero-point vibrational energy     579829.4 (Joules/Mol)
                                  138.58255 (Kcal/Mol)
 Warning -- explicit consideration of  16 degrees of freedom as
           vibrations may cause significant error
 Vibrational temperatures:     28.25    42.98    80.49   169.12   256.92
          (Kelvin)            268.91   335.66   354.53   384.31   464.99
                              570.55   587.24   593.77   603.99   702.53
                              742.30   910.26   910.82   970.08  1011.02
                             1014.47  1024.48  1026.86  1089.78  1097.83
                             1239.05  1247.95  1309.66  1323.43  1327.49
                             1347.69  1395.23  1405.94  1434.23  1440.55
                             1460.70  1461.77  1513.81  1517.12  1591.67
                             1600.21  1601.43  1608.53  1717.16  1718.19
                             1750.86  1760.25  1904.59  1915.97  1944.34
                             1961.27  1973.40  2128.67  2132.94  2159.77
                             2161.33  2202.59  2208.30  2345.27  2348.76
                             2369.28  2373.24  4387.53  4505.25  4515.01
                             4567.92  4570.01  4577.64  4578.21  4591.12
                             4592.74  4601.55  4609.44  4614.32  4619.36

 Zero-point correction=                           0.220845 (Hartree/Particle)
 Thermal correction to Energy=                    0.233542
 Thermal correction to Enthalpy=                  0.234486
 Thermal correction to Gibbs Free Energy=         0.179766
 Sum of electronic and zero-point Energies=           -844.343484
 Sum of electronic and thermal Energies=              -844.330788
 Sum of electronic and thermal Enthalpies=            -844.329844
 Sum of electronic and thermal Free Energies=         -844.384564

                     E (Thermal)             CV                S
                      KCal/Mol        Cal/Mol-Kelvin    Cal/Mol-Kelvin
 Total                  146.550             49.332            115.168
 Electronic               0.000              0.000              0.000
 Translational            0.889              2.981             41.785
 Rotational               0.889              2.981             32.031
 Vibrational            144.772             43.370             41.352
 Vibration     1          0.593              1.986              6.671
 Vibration     2          0.594              1.984              5.838
 Vibration     3          0.596              1.975              4.596
 Vibration     4          0.608              1.935              3.140
 Vibration     5          0.629              1.869              2.343
 Vibration     6          0.632              1.858              2.258
 Vibration     7          0.654              1.790              1.853
 Vibration     8          0.661              1.769              1.756
 Vibration     9          0.672              1.733              1.615
 Vibration    10          0.708              1.629              1.294
 Vibration    11          0.763              1.478              0.975
 Vibration    12          0.773              1.453              0.933
 Vibration    13          0.776              1.443              0.917
 Vibration    14          0.782              1.427              0.893
 Vibration    15          0.844              1.276              0.688
 Vibration    16          0.871              1.215              0.619

                           ! Non-Optimized Parameters !
 Normal termination of Gaussian 16 at Sun Aug 23 12:00:02 2020.
 Gaussian 16:  ES64L-G16RevA.03 25-Dec-2016

 ----------------------------------------------------------------------
 # TD(NStates=10, Root=1) B3LYP/6-31G* scf=qc volume pop=NPA density=cu
 rrent Geom=AllCheck Guess=Read
 ----------------------------------------------------------------------

 Structure from the checkpoint file:  "phosphine_3_conf33.chk"
 -------------------
 Title Card Required
 -------------------
 Charge =  0 Multiplicity = 1

                         Standard orientation:
 ---------------------------------------------------------------------
 Center     Atomic      Atomic             Coordinates (Angstroms)
 Number     Number       Type             X           Y           Z
 ---------------------------------------------------------------------
      1          6           0        0.056719    2.585717    0.714465
      2          1           0       -0.004262    2.109108    1.698854
      3          1           0        0.994854    3.146515    0.657248
      4          1           0       -0.766199    3.300056    0.606375
      5         15           0        0.036747    1.369030   -0.701528
      6          6           0        1.438381    0.263122   -0.190097
      7          6           0        1.386097   -0.598828    0.917314
      8          6           0        2.489068   -1.378220    1.264712
      9          6           0        3.664123   -1.307370    0.511355
     10          6           0        3.728803   -0.457541   -0.592855
     11          6           0        2.620705    0.317914   -0.942753
     12          6           0       -1.434487    0.319156   -0.299572
     13          6           0       -2.399815    0.657809    0.660225
     14          6           0       -3.530030   -0.141969    0.853208
     15          6           0       -3.712902   -1.296578    0.093926
     16          6           0       -2.760837   -1.645234   -0.868118
     17          6           0       -1.640840   -0.841492   -1.067474
     18          1           0        0.473734   -0.667588    1.503962
     19          1           0        2.432574   -2.042677    2.123380
     20          1           0        4.522622   -1.916396    0.782477
     21          1           0        4.637511   -0.402186   -1.186804
     22          1           0        2.670959    0.970088   -1.811603
     23          1           0       -2.279577    1.549357    1.268083
     24          1           0       -4.265271    0.139875    1.602870
     25          1           0       -4.590831   -1.918814    0.245839
     26          1           0       -2.894785   -2.541910   -1.467862
     27          1           0       -0.912441   -1.119794   -1.825924
 ---------------------------------------------------------------------

 SCF Done:  E(RB3LYP) =  -844.564329556     a.u. after    1 cycles

 Excitation energies and oscillator strengths:

 Excited State   1:      Singlet-A      4.6040 eV  269.30 nm  f=0.0437  <S**2>=0.000
      53 -> 54         0.68719
      53 -> 55         0.11765
 This state for optimization and/or second-order correction.
 Total Energy, E(TD-HF/TD-DFT) =  -844.395136700
 Copying the excited state density for this state as the 1-particle RhoCI density.

 Excited State   2:      Singlet-A      4.8957 eV  253.25 nm  f=0.0129  <S**2>=0.000
      51 -> 55        -0.10668
      52 -> 54         0.13722
      52 -> 55        -0.11058
      53 -> 55         0.22332
      53 -> 56         0.62639

 Excited State   3:      Singlet-A      5.0080 eV  247.57 nm  f=0.1456  <S**2>=0.000
      53 -> 54        -0.10831
      53 -> 55         0.61738
      53 -> 56        -0.19949
      53 -> 57         0.18780

 Excited State   4:      Singlet-A      5.1446 eV  241.00 nm  f=0.0377  <S**2>=0.000
      50 -> 55        -0.12089
      51 -> 54        -0.20907
      52 -> 55         0.13459
      52 -> 56        -0.10041
      53 -> 55        -0.16842
      53 -> 56         0.12407
      53 -> 57         0.59552

 Excited State   5:      Singlet-A      5.4217 eV  228.68 nm  f=0.0047  <S**2>=0.000
      50 -> 55         0.19198
      50 -> 56         0.26463
      50 -> 57         0.20867
      51 -> 54         0.36756
      51 -> 55         0.15918
      52 -> 54        -0.31190
      52 -> 56         0.15532
      52 -> 57         0.12150
      53 -> 56         0.12032
      53 -> 57         0.16410

 Excited State   6:      Singlet-A      5.7387 eV  216.05 nm  f=0.0118  <S**2>=0.000
      49 -> 56        -0.20663
      49 -> 57         0.15968
      50 -> 54        -0.15950
      51 -> 54         0.32350
      52 -> 54         0.48420
      53 -> 57         0.18650

 Excited State   7:      Singlet-A      5.8271 eV  212.77 nm  f=0.0123  <S**2>=0.000
      49 -> 56         0.24773
      49 -> 57        -0.17948
      51 -> 54         0.14348
      51 -> 55         0.13253
      51 -> 56        -0.11212
      52 -> 54         0.18725
      52 -> 55         0.51476
      53 -> 57        -0.14755

 Excited State   8:      Singlet-A      5.8572 eV  211.68 nm  f=0.0220  <S**2>=0.000
      49 -> 54         0.18062
      49 -> 56         0.10113
      50 -> 54         0.46235
      50 -> 55        -0.34292
      50 -> 56         0.16416
      51 -> 56        -0.10963
      52 -> 54         0.14568
      52 -> 56         0.19486

 Excited State   9:      Singlet-A      5.9279 eV  209.15 nm  f=0.0005  <S**2>=0.000
      50 -> 54        -0.16539
      51 -> 54        -0.20740
      51 -> 55         0.57123
      51 -> 56        -0.12188
      52 -> 55        -0.21542
      52 -> 56         0.13315

 Excited State  10:      Singlet-A      5.9927 eV  206.89 nm  f=0.0264  <S**2>=0.000
      49 -> 54         0.31242
      50 -> 54         0.20307
      50 -> 55         0.45947
      50 -> 56        -0.17072
      51 -> 54        -0.13354
      51 -> 56        -0.16718
      52 -> 55         0.12385
      52 -> 56         0.15037

 The electronic state is 1-A.
 Alpha  occ. eigenvalues --  -77.07968 -10.19393 -10.19299 -10.19192 -10.19093
 Alpha  occ. eigenvalues --  -10.19068 -10.19059 -10.19011 -10.19001 -10.18964
 Alpha  occ. eigenvalues --  -10.18942 -10.18899 -10.18858 -10.18421  -6.54710
 Alpha  occ. eigenvalues --   -4.70976  -4.70963  -4.70459  -0.85270  -0.84774
 Alpha  occ. eigenvalues --   -0.76468  -0.74320  -0.74256  -0.73796  -0.70921
 Alpha  occ. eigenvalues --   -0.62338  -0.60252  -0.59978  -0.59281  -0.55060
 Alpha  occ. eigenvalues --   -0.51448  -0.49651  -0.45409  -0.44649  -0.44597
 Alpha  occ. eigenvalues --   -0.44242  -0.42401  -0.42079  -0.41685  -0.41109
 Alpha  occ. eigenvalues --   -0.38955  -0.37871  -0.36381  -0.36120  -0.34369
 Alpha  occ. eigenvalues --   -0.34239  -0.32560  -0.31576  -0.26446  -0.25181
 Alpha  occ. eigenvalues --   -0.25018  -0.24726  -0.21380
 Alpha virt. eigenvalues --   -0.01530  -0.00807  -0.00420   0.00542   0.06285
 Alpha virt. eigenvalues --    0.07173   0.09234   0.10908   0.12717   0.13596
 Alpha virt. eigenvalues --    0.14141   0.14681   0.15150   0.15528   0.16193

 Mulliken charges:
               1
     1  C   -0.640343
     2  H    0.215653
     3  H    0.203707
     4  H    0.161080
     5  P    0.507436
     6  C   -0.150256
     7  C   -0.192274
     8  C   -0.109925
     9  C   -0.192743
    10  C   -0.134729
    11  C   -0.175821
    12  C   -0.067170
    13  C   -0.159616
    14  C   -0.113004
    15  C   -0.121546
    16  C   -0.115321
    17  C   -0.143148
    18  H    0.087404
    19  H    0.100192
    20  H    0.085525
    21  H    0.093494
    22  H    0.089988
    23  H    0.148017
    24  H    0.149050
    25  H    0.153075
    26  H    0.152372
    27  H    0.168902
 Sum of Mulliken charges =  -0.00000

 Dipole moment (field-independent basis, Debye):
    X=             -7.0006    Y=              2.3421    Z=             -0.4353  Tot=              7.3948
 Quadrupole moment (field-independent basis, Debye-Ang):
   XX=            -91.9186   YY=            -83.0711   ZZ=            -86.8625
   XY=              6.4508   XZ=             -4.1076   YZ=              1.5615

 Summary of Natural Population Analysis:

                                       Natural Population
                Natural  -----------------------------------------------
    Atom  No    Charge         Core      Valence    Rydberg      Total
 -----------------------------------------------------------------------
      C    1   -1.03466      1.99946     5.02410    0.01111     7.03466
      H    2    0.27674      0.00000     0.72217    0.00109     0.72326
      H    3    0.27448      0.00000     0.72483    0.00069     0.72552
      H    4    0.23978      0.00000     0.75839    0.00183     0.76022
      P    5    1.26002      9.99755     3.69253    0.04990    13.73998
      C    6   -0.53815      1.99883     4.51440    0.02492     6.53815
      C    7   -0.30972      1.99898     4.29097    0.01977     6.30972
      C    8   -0.21951      1.99908     4.20597    0.01445     6.21951
      C    9   -0.34744      1.99910     4.33055    0.01779     6.34744
      C   10   -0.26947      1.99910     4.25444    0.01594     6.26947
      C   11   -0.23975      1.99902     4.22467    0.01606     6.23975
      C   12   -0.37080      1.99892     4.34864    0.02324     6.37080
      C   13   -0.21168      1.99900     4.19732    0.01535     6.21168
      C   14   -0.22553      1.99910     4.21219    0.01424     6.22553
      C   15   -0.19014      1.99909     4.17699    0.01406     6.19014
      C   16   -0.23274      1.99910     4.21947    0.01417     6.23274
      C   17   -0.18262      1.99902     4.16720    0.01640     6.18262
      H   18    0.21302      0.00000     0.78592    0.00106     0.78698
      H   19    0.22425      0.00000     0.77489    0.00086     0.77575
      H   20    0.21569      0.00000     0.78353    0.00078     0.78431
      H   21    0.22043      0.00000     0.77871    0.00086     0.77957
      H   22    0.21175      0.00000     0.78752    0.00073     0.78825
      H   23    0.24185      0.00000     0.75692    0.00123     0.75815
      H   24    0.24607      0.00000     0.75310    0.00083     0.75393
      H   25    0.24447      0.00000     0.75474    0.00079     0.75553
      H   26    0.24840      0.00000     0.75082    0.00078     0.75160
      H   27    0.25528      0.00000     0.74314    0.00159     0.74472
 =======================================================================
   * Total *   -0.00000     35.98536    69.73411    0.28054   106.00000

 Normal termination of Gaussian 16 at Sun Aug 23 12:07:21 2020.
