 Gaussian 16, Revision A.03,

 ---------------------------------
 # opt=CalcAll B3LYP/6-31G* scf=qc
 ---------------------------------

 -------------------
 Title Card Required
 -------------------
 Symbolic Z-matrix:
 Charge =  0 Multiplicity = 1

 SCF Done:  E(RB3LYP) =  -1333.98432202     a.u. after    7 cycles
 SCF Done:  E(RB3LYP) =  -1333.99509205     a.u. after   17 cycles
 SCF Done:  E(RB3LYP) =  -1333.99769576     a.u. after   17 cycles
 SCF Done:  E(RB3LYP) =  -1333.99830927     a.u. after   17 cycles
 SCF Done:  E(RB3LYP) =  -1333.99820637     a.u. after   13 cycles
 SCF Done:  E(RB3LYP) =  -1333.99886730     a.u. after   15 cycles
 SCF Done:  E(RB3LYP) =  -1333.99890951     a.u. after   13 cycles
 SCF Done:  E(RB3LYP) =  -1333.99897141     a.u. after    7 cycles
 SCF Done:  E(RB3LYP) =  -1333.99897401     a.u. after    5 cycles
 SCF Done:  E(RB3LYP) =  -1333.99898155     a.u. after    5 cycles
 SCF Done:  E(RB3LYP) =  -1333.99897717     a.u. after    4 cycles
 SCF Done:  E(RB3LYP) =  -1333.99898225     a.u. after    2 cycles
 SCF Done:  E(RB3LYP) =  -1333.99897490     a.u. after    2 cycles
 SCF Done:  E(RB3LYP) =  -1333.99897992     a.u. after    2 cycles
 SCF Done:  E(RB3LYP) =  -1333.99897731     a.u. after    2 cycles
 Optimization completed.
    -- Stationary point found.
 Normal termination of Gaussian 16 at Sun Aug 23 15:36:11 2020.

 ----------------------------------------------------------------------
 # freq B3LYP/6-31G* scf=qc volume NMR pop=NPA density=current Geom=All
 Check Guess=Read
 ----------------------------------------------------------------------

 Structure from the checkpoint file:  "phosphine_5_conf282.chk"
 -------------------
 Title Card Required
 -------------------
 Charge =  0 Multiplicity = 1

 SCF Done:  E(RB3LYP) =  -1333.99897731     a.u. after    1 cycles

      1  C    Isotropic =    79.9387   Anisotropy =   137.4496

      2  C    Isotropic =    59.0298   Anisotropy =   162.7615

      3  C    Isotropic =    61.6181   Anisotropy =   173.4892

      4  C    Isotropic =    60.6894   Anisotropy =   171.8810

      5  C    Isotropic =    80.0593   Anisotropy =   136.7114

      6  C    Isotropic =    32.6618   Anisotropy =    98.8255

      7  F    Isotropic =   295.7896   Anisotropy =   113.0561

      8  P    Isotropic =   366.1860   Anisotropy =    40.1410

      9  C    Isotropic =    61.6326   Anisotropy =   173.4696

     10  C    Isotropic =    59.0461   Anisotropy =   162.7895

     11  C    Isotropic =    79.9368   Anisotropy =   137.4477

     12  C    Isotropic =    32.6604   Anisotropy =    98.8175

     13  C    Isotropic =    80.0646   Anisotropy =   136.7251

     14  C    Isotropic =    60.7224   Anisotropy =   171.8754

     15  F    Isotropic =   295.7919   Anisotropy =   113.0045

     16  C    Isotropic =    61.5923   Anisotropy =   173.4937

     17  C    Isotropic =    59.0489   Anisotropy =   162.7914

     18  C    Isotropic =    79.9277   Anisotropy =   137.4471

     19  C    Isotropic =    32.6670   Anisotropy =    98.8159

     20  C    Isotropic =    80.0590   Anisotropy =   136.7033

     21  C    Isotropic =    60.7182   Anisotropy =   171.8190

     22  F    Isotropic =   295.8146   Anisotropy =   113.0364

     23  H    Isotropic =    25.3579   Anisotropy =     4.2576

     24  H    Isotropic =    24.6185   Anisotropy =     8.9136

     25  H    Isotropic =    25.3639   Anisotropy =    12.0148

     26  H    Isotropic =    25.4649   Anisotropy =     5.7387

     27  H    Isotropic =    24.6198   Anisotropy =     8.9208

     28  H    Isotropic =    25.3576   Anisotropy =     4.2599

     29  H    Isotropic =    25.4664   Anisotropy =     5.7365

     30  H    Isotropic =    25.3665   Anisotropy =    12.0186

     31  H    Isotropic =    24.6206   Anisotropy =     8.9223

     32  H    Isotropic =    25.3573   Anisotropy =     4.2623

     33  H    Isotropic =    25.4672   Anisotropy =     5.7362

     34  H    Isotropic =    25.3697   Anisotropy =    12.0173

  Exact polarizability: 226.217   0.049 226.132   0.050   0.017 167.712
 Approx polarizability: 337.884   0.108 337.739   0.110   0.042 314.841

                      1                      2                      3
                      A                      A                      A
 Frequencies --     23.7717                24.9615                37.4978
 Red. masses --      4.0760                 4.1301                 9.0008
 Frc consts  --      0.0014                 0.0015                 0.0075
 IR Inten    --      0.2505                 0.2429                 0.0986

                      4                      5                      6
                      A                      A                      A
 Frequencies --     37.7327                40.5779                50.6220
 Red. masses --      8.7526                 3.7400                 9.9405
 Frc consts  --      0.0073                 0.0036                 0.0150
 IR Inten    --      0.1062                 0.0063                 0.1137

                      7                      8                      9
                      A                      A                      A
 Frequencies --    132.9473               145.3893               145.7352
 Red. masses --      8.0530                 8.3690                 8.3755
 Frc consts  --      0.0839                 0.1042                 0.1048
 IR Inten    --      0.0233                 0.5192                 0.5164

                     10                     11                     12
                      A                      A                      A
 Frequencies --    208.9561               218.9452               219.1791
 Red. masses --      8.0475                 6.9852                 6.9888
 Frc consts  --      0.2070                 0.1973                 0.1978
 IR Inten    --      0.2910                 0.5290                 0.5260

                     13                     14                     15
                      A                      A                      A
 Frequencies --    307.9231               336.0027               336.1238
 Red. masses --      8.4352                 8.3083                 8.3110
 Frc consts  --      0.4712                 0.5526                 0.5532
 IR Inten    --      1.0294                 0.0430                 0.0443

                     16                     17                     18
                      A                      A                      A
 Frequencies --    397.1587               404.0970               404.1258
 Red. masses --      7.7430                 8.0366                 8.0134
 Frc consts  --      0.7196                 0.7732                 0.7711
 IR Inten    --      0.3021                10.0664                10.1200

                     19                     20                     21
                      A                      A                      A
 Frequencies --    420.6716               420.7719               424.7281
 Red. masses --      3.2787                 3.2805                 3.1340
 Frc consts  --      0.3419                 0.3422                 0.3331
 IR Inten    --      1.0745                 1.1469                 0.0218

                     22                     23                     24
                      A                      A                      A
 Frequencies --    435.0025               435.1400               463.4903
 Red. masses --      6.1432                 6.1548                 6.6405
 Frc consts  --      0.6849                 0.6866                 0.8405
 IR Inten    --     18.9729                19.0505                 7.3821

                     25                     26                     27
                      A                      A                      A
 Frequencies --    532.9781               533.1966               535.5960
 Red. masses --      2.8102                 2.8110                 2.9073
 Frc consts  --      0.4703                 0.4708                 0.4914
 IR Inten    --     21.8665                21.8422                13.4854

                     28                     29                     30
                      A                      A                      A
 Frequencies --    608.0364               629.9643               630.0193
 Red. masses --      7.9095                 7.8307                 7.8316
 Frc consts  --      1.7229                 1.8310                 1.8315
 IR Inten    --      0.0089                 0.0388                 0.0380

                     31                     32                     33
                      A                      A                      A
 Frequencies --    648.2220               648.3894               648.4118
 Red. masses --      7.2775                 7.3791                 7.3783
 Frc consts  --      1.8017                 1.8278                 1.8277
 IR Inten    --      0.0060                 0.1273                 0.1260

                     34                     35                     36
                      A                      A                      A
 Frequencies --    715.1921               715.6396               715.7562
 Red. masses --      4.8115                 4.8249                 4.8300
 Frc consts  --      1.4500                 1.4559                 1.4579
 IR Inten    --      1.0072                 3.9555                 3.9963

                     37                     38                     39
                      A                      A                      A
 Frequencies --    835.7290               835.8155               836.8721
 Red. masses --      1.2621                 1.2624                 1.3268
 Frc consts  --      0.5194                 0.5196                 0.5475
 IR Inten    --      0.5661                 0.4722                11.2612

                     40                     41                     42
                      A                      A                      A
 Frequencies --    839.5315               839.5445               839.7723
 Red. masses --      3.2238                 3.3391                 4.0070
 Frc consts  --      1.3387                 1.3867                 1.6649
 IR Inten    --     62.5323                60.1137                19.2000

                     43                     44                     45
                      A                      A                      A
 Frequencies --    843.6462               843.7165               844.0340
 Red. masses --      1.9811                 2.0037                 1.6669
 Frc consts  --      0.8308                 0.8404                 0.6996
 IR Inten    --     10.2848                 9.7854                12.4491

                     46                     47                     48
                      A                      A                      A
 Frequencies --    958.5470               958.6875               959.8324
 Red. masses --      1.2561                 1.2559                 1.2584
 Frc consts  --      0.6800                 0.6801                 0.6831
 IR Inten    --      0.1702                 0.1673                 0.3375

                     49                     50                     51
                      A                      A                      A
 Frequencies --    969.7775               969.9469               973.3430
 Red. masses --      1.3358                 1.3353                 1.3200
 Frc consts  --      0.7402                 0.7401                 0.7368
 IR Inten    --      0.0328                 0.0323                 0.3103

                     52                     53                     54
                      A                      A                      A
 Frequencies --   1034.7102              1034.7903              1035.2047
 Red. masses --      3.0279                 3.0298                 3.0227
 Frc consts  --      1.9100                 1.9115                 1.9086
 IR Inten    --      7.9816                 7.9291                 0.1068

                     55                     56                     57
                      A                      A                      A
 Frequencies --   1102.8463              1102.9669              1108.5864
 Red. masses --      3.6662                 3.6671                 3.5544
 Frc consts  --      2.6272                 2.6284                 2.5737
 IR Inten    --     19.2256                19.2593                 1.9310

                     58                     59                     60
                      A                      A                      A
 Frequencies --   1127.5348              1127.6731              1127.8798
 Red. masses --      1.3306                 1.3304                 1.3291
 Frc consts  --      0.9967                 0.9968                 0.9962
 IR Inten    --      1.0294                 1.5275                 6.4472

                     61                     62                     63
                      A                      A                      A
 Frequencies --   1195.2156              1195.4272              1199.3786
 Red. masses --      1.1835                 1.1843                 1.1797
 Frc consts  --      0.9961                 0.9972                 0.9998
 IR Inten    --     60.5938                60.7543                 2.4866

                     64                     65                     66
                      A                      A                      A
 Frequencies --   1285.3137              1285.3989              1286.1620
 Red. masses --      3.7546                 3.7508                 3.7894
 Frc consts  --      3.6545                 3.6513                 3.6933
 IR Inten    --    167.4197               166.7446                38.7219

                     67                     68                     69
                      A                      A                      A
 Frequencies --   1324.0976              1327.3420              1327.5494
 Red. masses --      2.7211                 2.2288                 2.2567
 Frc consts  --      2.8108                 2.3136                 2.3433
 IR Inten    --      8.8905                 3.9496                 3.7924

                     70                     71                     72
                      A                      A                      A
 Frequencies --   1336.7099              1336.8366              1337.1268
 Red. masses --      2.3298                 2.2452                 1.9789
 Frc consts  --      2.4527                 2.3641                 2.0845
 IR Inten    --      0.3401                 0.4174                 0.8317

                     73                     74                     75
                      A                      A                      A
 Frequencies --   1437.9364              1438.0840              1438.2077
 Red. masses --      2.9854                 2.9931                 2.9914
 Frc consts  --      3.6369                 3.6471                 3.6455
 IR Inten    --      7.0731                 2.7168                 2.3200

                     76                     77                     78
                      A                      A                      A
 Frequencies --   1545.5797              1545.6937              1546.5417
 Red. masses --      2.4083                 2.4065                 2.4452
 Frc consts  --      3.3896                 3.3876                 3.4458
 IR Inten    --    116.5704               116.3297                24.3012

                     79                     80                     81
                      A                      A                      A
 Frequencies --   1633.9481              1634.0035              1634.0325
 Red. masses --      6.9686                 6.9657                 6.9586
 Frc consts  --     10.9615                10.9577                10.9469
 IR Inten    --     10.4153                12.4734                11.8811

                     82                     83                     84
                      A                      A                      A
 Frequencies --   1653.5422              1653.5688              1654.4117
 Red. masses --      5.8090                 5.8066                 5.8783
 Frc consts  --      9.3580                 9.3543                 9.4797
 IR Inten    --     82.8012                82.6832                22.5151

                     85                     86                     87
                      A                      A                      A
 Frequencies --   3188.8311              3188.8589              3188.8697
 Red. masses --      1.0893                 1.0892                 1.0891
 Frc consts  --      6.5261                 6.5254                 6.5255
 IR Inten    --      9.2790                 2.1324                 1.9863

                     88                     89                     90
                      A                      A                      A
 Frequencies --   3205.6139              3205.8511              3206.4928
 Red. masses --      1.0878                 1.0878                 1.0879
 Frc consts  --      6.5862                 6.5871                 6.5900
 IR Inten    --      1.9757                 1.8911                 0.5198

                     91                     92                     93
                      A                      A                      A
 Frequencies --   3221.8594              3221.9679              3222.1835
 Red. masses --      1.0942                 1.0942                 1.0940
 Frc consts  --      6.6920                 6.6924                 6.6925
 IR Inten    --      3.5486                 3.6195                10.9862

                     94                     95                     96
                      A                      A                      A
 Frequencies --   3222.6087              3222.6471              3222.8732
 Red. masses --      1.0936                 1.0936                 1.0939
 Frc consts  --      6.6917                 6.6919                 6.6947
 IR Inten    --     12.0958                12.1861                 0.3705

 - Thermochemistry -
 -------------------
 Temperature   298.150 Kelvin.  Pressure   1.00000 Atm.
 Atom     1 has atomic number  6 and mass  12.00000

 Molecular mass:   316.06287 amu.
 Principal axes and moments of inertia in atomic units:
                           1         2         3
     Eigenvalues --  8316.634888320.23810**********
           X            0.99963   0.02715   0.00002
           Y           -0.02715   0.99963   0.00000
           Z           -0.00002  -0.00000   1.00000
 This molecule is an asymmetric top.
 Rotational symmetry number  1.
 Warning -- assumption of classical behavior for rotation
           may cause significant error
 Rotational temperatures (Kelvin)      0.01041     0.01041     0.00597
 Rotational constants (GHZ):           0.21700     0.21691     0.12430
 Zero-point vibrational energy     655282.7 (Joules/Mol)
                                  156.61632 (Kcal/Mol)
 Warning -- explicit consideration of  28 degrees of freedom as
           vibrations may cause significant error
 Vibrational temperatures:     34.20    35.91    53.95    54.29    58.38
          (Kelvin)             72.83   191.28   209.18   209.68   300.64
                              315.01   315.35   443.03   483.43   483.61
                              571.42   581.41   581.45   605.25   605.40
                              611.09   625.87   626.07   666.86   766.84
                              767.15   770.60   874.83   906.38   906.46
                              932.65   932.89   932.92  1029.00  1029.65
                             1029.81  1202.43  1202.55  1204.07  1207.90
                             1207.92  1208.25  1213.82  1213.92  1214.38
                             1379.14  1379.34  1380.98  1395.29  1395.54
                             1400.42  1488.72  1488.83  1489.43  1586.75
                             1586.92  1595.01  1622.27  1622.47  1622.77
                             1719.65  1719.95  1725.64  1849.28  1849.40
                             1850.50  1905.08  1909.75  1910.05  1923.23
                             1923.41  1923.83  2068.87  2069.08  2069.26
                             2223.74  2223.91  2225.13  2350.89  2350.97
                             2351.01  2379.08  2379.12  2380.33  4588.02
                             4588.06  4588.07  4612.16  4612.50  4613.43
                             4635.54  4635.69  4636.00  4636.62  4636.67
                             4637.00

 Zero-point correction=                           0.249584 (Hartree/Particle)
 Thermal correction to Energy=                    0.268013
 Thermal correction to Enthalpy=                  0.268957
 Thermal correction to Gibbs Free Energy=         0.199544
 Sum of electronic and zero-point Energies=          -1333.749393
 Sum of electronic and thermal Energies=             -1333.730965
 Sum of electronic and thermal Enthalpies=           -1333.730021
 Sum of electronic and thermal Free Energies=        -1333.799434

                     E (Thermal)             CV                S
                      KCal/Mol        Cal/Mol-Kelvin    Cal/Mol-Kelvin
 Total                  168.180             71.397            146.092
 Electronic               0.000              0.000              0.000
 Translational            0.889              2.981             43.148
 Rotational               0.889              2.981             35.262
 Vibrational            166.403             65.435             67.682
 Vibration     1          0.593              1.985              6.291
 Vibration     2          0.593              1.985              6.194
 Vibration     3          0.594              1.982              5.387
 Vibration     4          0.594              1.982              5.375
 Vibration     5          0.594              1.981              5.231
 Vibration     6          0.595              1.977              4.793
 Vibration     7          0.613              1.920              2.903
 Vibration     8          0.617              1.908              2.732
 Vibration     9          0.617              1.907              2.727
 Vibration    10          0.642              1.827              2.053
 Vibration    11          0.647              1.812              1.968
 Vibration    12          0.647              1.812              1.966
 Vibration    13          0.698              1.659              1.373
 Vibration    14          0.717              1.604              1.231
 Vibration    15          0.717              1.603              1.230
 Vibration    16          0.764              1.476              0.973
 Vibration    17          0.769              1.461              0.948
 Vibration    18          0.769              1.461              0.948
 Vibration    19          0.783              1.425              0.890
 Vibration    20          0.783              1.425              0.889
 Vibration    21          0.787              1.416              0.876
 Vibration    22          0.796              1.394              0.842
 Vibration    23          0.796              1.394              0.842
 Vibration    24          0.821              1.331              0.756
 Vibration    25          0.888              1.177              0.581
 Vibration    26          0.888              1.177              0.580
 Vibration    27          0.891              1.171              0.575
 Vibration    28          0.967              1.015              0.436

                           ! Non-Optimized Parameters !
 Normal termination of Gaussian 16 at Sun Aug 23 15:49:54 2020.
 Gaussian 16:  ES64L-G16RevA.03 25-Dec-2016

 ----------------------------------------------------------------------
 # TD(NStates=10, Root=1) B3LYP/6-31G* scf=qc volume pop=NPA density=cu
 rrent Geom=AllCheck Guess=Read
 ----------------------------------------------------------------------

 Structure from the checkpoint file:  "phosphine_5_conf283.chk"
 -------------------
 Title Card Required
 -------------------
 Charge =  0 Multiplicity = 1

                         Standard orientation:
 ---------------------------------------------------------------------
 Center     Atomic      Atomic             Coordinates (Angstroms)
 Number     Number       Type             X           Y           Z
 ---------------------------------------------------------------------
      1          6           0        2.451286    3.230069    0.699558
      2          6           0        1.522041    2.329534    1.217165
      3          6           0        1.245991    1.111467    0.571707
      4          6           0        1.949155    0.806660   -0.604629
      5          6           0        2.891430    1.691415   -1.130879
      6          6           0        3.123198    2.891800   -0.469885
      7          9           0        4.032512    3.751184   -0.973466
      8         15           0       -0.000212    0.000267    1.374680
      9          6           0       -1.585793    0.523448    0.571636
     10          6           0       -2.778533    0.150618    1.215789
     11          6           0       -4.023263    0.504655    0.698454
     12          6           0       -4.066738    1.258253   -0.469326
     13          6           0       -2.911516    1.660580   -1.128951
     14          6           0       -1.673884    1.287259   -0.603055
     15          9           0       -5.265886    1.615700   -0.972581
     16          6           0        0.339463   -1.634540    0.571803
     17          6           0        1.259364   -2.480762    1.215420
     18          6           0        1.575218   -3.735642    0.697886
     19          6           0        0.943774   -4.150320   -0.469520
     20          6           0        0.017057   -3.351356   -1.128574
     21          6           0       -0.278538   -2.092964   -0.602507
     22          9           0        1.233931   -5.367436   -0.972951
     23          1           0        2.668096    4.173201    1.190521
     24          1           0        1.005841    2.576324    2.141709
     25          1           0        1.766955   -0.133480   -1.116022
     26          1           0        3.442830    1.463266   -2.037445
     27          1           0       -2.733868   -0.421765    2.139120
     28          1           0       -4.948283    0.218614    1.188424
     29          1           0       -2.989974    2.254058   -2.034260
     30          1           0       -0.768865    1.601766   -1.113537
     31          1           0        1.733221   -2.155728    2.138443
     32          1           0        2.285973   -4.393465    1.187413
     33          1           0       -0.458109   -3.716200   -2.033591
     34          1           0       -1.003927   -1.466669   -1.112553
 ---------------------------------------------------------------------

 SCF Done:  E(RB3LYP) =  -1333.99897731     a.u. after    1 cycles

 Excitation energies and oscillator strengths:

 Excited State   1:      Singlet-A      4.5735 eV  271.09 nm  f=0.1354  <S**2>=0.000
      81 -> 82         0.69366
 This state for optimization and/or second-order correction.
 Total Energy, E(TD-HF/TD-DFT) =  -1333.83090428
 Copying the excited state density for this state as the 1-particle RhoCI density.

 Excited State   2:      Singlet-A      4.5749 eV  271.01 nm  f=0.1361  <S**2>=0.000
      81 -> 83         0.69373

 Excited State   3:      Singlet-A      4.5858 eV  270.36 nm  f=0.0089  <S**2>=0.000
      81 -> 84         0.68922

 Excited State   4:      Singlet-A      4.9052 eV  252.76 nm  f=0.0017  <S**2>=0.000
      81 -> 85         0.67591

 Excited State   5:      Singlet-A      4.9058 eV  252.73 nm  f=0.0017  <S**2>=0.000
      81 -> 86         0.67576

 Excited State   6:      Singlet-A      5.2391 eV  236.65 nm  f=0.0075  <S**2>=0.000
      79 -> 82         0.10167
      80 -> 83         0.10201
      81 -> 87         0.67233

 Excited State   7:      Singlet-A      5.4171 eV  228.88 nm  f=0.0000  <S**2>=0.000
      75 -> 84         0.14229
      77 -> 82         0.17597
      78 -> 83        -0.16813
      79 -> 82         0.29274
      79 -> 83        -0.28384
      79 -> 85         0.14483
      80 -> 82         0.28330
      80 -> 83         0.29058
      80 -> 86         0.13953

 Excited State   8:      Singlet-A      5.4452 eV  227.69 nm  f=0.0020  <S**2>=0.000
      76 -> 82        -0.21074
      77 -> 83        -0.18213
      77 -> 87        -0.12166
      78 -> 82         0.18334
      79 -> 84        -0.29118
      79 -> 85        -0.14091
      80 -> 84         0.40821
      80 -> 86         0.14418
      81 -> 85        -0.12621

 Excited State   9:      Singlet-A      5.4457 eV  227.67 nm  f=0.0021  <S**2>=0.000
      76 -> 83         0.20955
      77 -> 82         0.17825
      78 -> 83         0.18560
      78 -> 87        -0.12163
      79 -> 84         0.40654
      79 -> 86        -0.14294
      80 -> 84         0.29413
      80 -> 85        -0.14135
      81 -> 86         0.12663

 Excited State  10:      Singlet-A      5.6625 eV  218.96 nm  f=0.0010  <S**2>=0.000
      75 -> 84        -0.16527
      76 -> 84         0.10256
      77 -> 82        -0.24501
      78 -> 83         0.23921
      79 -> 82         0.10847
      79 -> 83        -0.25265
      79 -> 85        -0.21869
      79 -> 86        -0.12638
      80 -> 82         0.31331
      80 -> 85         0.12714
      80 -> 86        -0.22593

 The electronic state is 1-A.
 Alpha  occ. eigenvalues --  -77.09285 -24.70934 -24.70932 -24.70931 -10.27930
 Alpha  occ. eigenvalues --  -10.27928 -10.27927 -10.20802 -10.20801 -10.20800
 Alpha  occ. eigenvalues --  -10.20701 -10.20700 -10.20699 -10.20478 -10.20478
 Alpha  occ. eigenvalues --  -10.20477 -10.20318 -10.20316 -10.20315 -10.20310
 Alpha  occ. eigenvalues --  -10.20309 -10.20308  -6.55986  -4.72248  -4.72248
 Alpha  occ. eigenvalues --   -4.71743  -1.22112  -1.22111  -1.22110  -0.87207
 Alpha  occ. eigenvalues --   -0.86556  -0.86554  -0.77802  -0.76322  -0.76286
 Alpha  occ. eigenvalues --   -0.76285  -0.74868  -0.74866  -0.65458  -0.63138
 Alpha  occ. eigenvalues --   -0.62959  -0.62958  -0.60998  -0.60997  -0.57074
 Alpha  occ. eigenvalues --   -0.54665  -0.54664  -0.54254  -0.49446  -0.49445
 Alpha  occ. eigenvalues --   -0.49381  -0.48018  -0.48018  -0.46310  -0.46309
 Alpha  occ. eigenvalues --   -0.46296  -0.45864  -0.44921  -0.44921  -0.43857
 Alpha  occ. eigenvalues --   -0.43706  -0.43705  -0.42082  -0.40157  -0.40108
 Alpha  occ. eigenvalues --   -0.40107  -0.37161  -0.37158  -0.36439  -0.34997
 Alpha  occ. eigenvalues --   -0.34997  -0.34951  -0.33923  -0.33923  -0.27232
 Alpha  occ. eigenvalues --   -0.26849  -0.26599  -0.26597  -0.25425  -0.25422
 Alpha  occ. eigenvalues --   -0.21917
 Alpha virt. eigenvalues --   -0.02512  -0.02508  -0.02414  -0.01173  -0.01171
 Alpha virt. eigenvalues --   -0.00311   0.05882   0.05889   0.08467   0.10088
 Alpha virt. eigenvalues --    0.10089   0.12848   0.13529   0.13530   0.14052

 Mulliken charges:
               1
     1  C   -0.197031
     2  C   -0.161610
     3  C   -0.119175
     4  C   -0.188270
     5  C   -0.179131
     6  C    0.343045
     7  F   -0.303833
     8  P    0.435540
     9  C   -0.112743
    10  C   -0.179759
    11  C   -0.180709
    12  C    0.361843
    13  C   -0.190087
    14  C   -0.157535
    15  F   -0.294783
    16  C   -0.077545
    17  C   -0.156770
    18  C   -0.188012
    19  C    0.388830
    20  C   -0.183159
    21  C   -0.158340
    22  F   -0.283308
    23  H    0.135490
    24  H    0.130866
    25  H    0.127480
    26  H    0.138203
    27  H    0.136584
    28  H    0.146207
    29  H    0.150279
    30  H    0.165700
    31  H    0.158158
    32  H    0.159967
    33  H    0.162646
    34  H    0.170961
 Sum of Mulliken charges =  -0.00000

 Dipole moment (field-independent basis, Debye):
    X=             -0.8976    Y=             -3.1612    Z=              1.4563  Tot=              3.5944
 Quadrupole moment (field-independent basis, Debye-Ang):
   XX=           -143.4653   YY=           -135.5650   ZZ=           -121.8313
   XY=             -5.0364   XZ=              0.8491   YZ=              0.2984

 Summary of Natural Population Analysis:

                                       Natural Population
                Natural  -----------------------------------------------
    Atom  No    Charge         Core      Valence    Rydberg      Total
 -----------------------------------------------------------------------
      C    1   -0.32555      1.99900     4.31047    0.01609     6.32555
      C    2   -0.19792      1.99902     4.18323    0.01567     6.19792
      C    3   -0.47482      1.99887     4.45081    0.02514     6.47482
      C    4   -0.27463      1.99900     4.25694    0.01868     6.27463
      C    5   -0.28508      1.99899     4.27122    0.01487     6.28508
      C    6    0.37735      1.99844     3.59621    0.02800     5.62265
      F    7   -0.33857      1.99994     7.33315    0.00548     9.33857
      P    8    1.21007      9.99756     3.74081    0.05155    13.78993
      C    9   -0.45536      1.99889     4.42975    0.02672     6.45536
      C   10   -0.22793      1.99903     4.21259    0.01631     6.22793
      C   11   -0.29521      1.99899     4.28133    0.01489     6.29521
      C   12    0.40699      1.99844     3.56685    0.02771     5.59301
      C   13   -0.30624      1.99899     4.29204    0.01522     6.30624
      C   14   -0.20487      1.99901     4.18917    0.01670     6.20487
      F   15   -0.33066      1.99994     7.32517    0.00555     9.33066
      C   16   -0.38782      1.99890     4.36436    0.02456     6.38782
      C   17   -0.18698      1.99903     4.17276    0.01519     6.18698
      C   18   -0.31026      1.99899     4.29598    0.01529     6.31026
      C   19    0.45212      1.99844     3.52231    0.02713     5.54788
      C   20   -0.29519      1.99898     4.28148    0.01472     6.29519
      C   21   -0.21052      1.99901     4.19496    0.01655     6.21052
      F   22   -0.32043      1.99994     7.31490    0.00558     9.32043
      H   23    0.24640      0.00000     0.75241    0.00119     0.75360
      H   24    0.23359      0.00000     0.76539    0.00103     0.76641
      H   25    0.23467      0.00000     0.76386    0.00147     0.76533
      H   26    0.24742      0.00000     0.75138    0.00121     0.75258
      H   27    0.23566      0.00000     0.76340    0.00095     0.76434
      H   28    0.25068      0.00000     0.74808    0.00124     0.74932
      H   29    0.25358      0.00000     0.74523    0.00119     0.74642
      H   30    0.25544      0.00000     0.74298    0.00157     0.74456
      H   31    0.24802      0.00000     0.75074    0.00123     0.75198
      H   32    0.25783      0.00000     0.74100    0.00117     0.74217
      H   33    0.25923      0.00000     0.73959    0.00118     0.74077
      H   34    0.25899      0.00000     0.73981    0.00120     0.74101
 =======================================================================
   * Total *   -0.00000     51.97740   109.59038    0.43222   162.00000

 Normal termination of Gaussian 16 at Sun Aug 23 16:03:46 2020.
