 Gaussian 16, Revision A.03,

 ---------------------------------
 # opt=CalcAll B3LYP/6-31G* scf=qc
 ---------------------------------

 -------------------
 Title Card Required
 -------------------
 Symbolic Z-matrix:
 Charge =  0 Multiplicity = 1

 SCF Done:  E(RB3LYP) =  -2415.06653540     a.u. after    8 cycles
 SCF Done:  E(RB3LYP) =  -2415.07165909     a.u. after   17 cycles
 SCF Done:  E(RB3LYP) =  -2415.08390853     a.u. after   17 cycles
 SCF Done:  E(RB3LYP) =  -2415.08553753     a.u. after   15 cycles
 SCF Done:  E(RB3LYP) =  -2415.08604567     a.u. after   17 cycles
 SCF Done:  E(RB3LYP) =  -2415.08618449     a.u. after   11 cycles
 SCF Done:  E(RB3LYP) =  -2415.08619206     a.u. after   15 cycles
 SCF Done:  E(RB3LYP) =  -2415.08623182     a.u. after   11 cycles
 SCF Done:  E(RB3LYP) =  -2415.08624678     a.u. after    7 cycles
 SCF Done:  E(RB3LYP) =  -2415.08624027     a.u. after    3 cycles
 SCF Done:  E(RB3LYP) =  -2415.08624297     a.u. after    2 cycles
 SCF Done:  E(RB3LYP) =  -2415.08624703     a.u. after    4 cycles
 SCF Done:  E(RB3LYP) =  -2415.08624772     a.u. after    2 cycles
 SCF Done:  E(RB3LYP) =  -2415.08624063     a.u. after    2 cycles
 SCF Done:  E(RB3LYP) =  -2415.08624319     a.u. after    3 cycles
 SCF Done:  E(RB3LYP) =  -2415.08624446     a.u. after    2 cycles
 SCF Done:  E(RB3LYP) =  -2415.08624524     a.u. after    2 cycles
 SCF Done:  E(RB3LYP) =  -2415.08624533     a.u. after    2 cycles
 Optimization completed.
    -- Stationary point found.
 Normal termination of Gaussian 16 at Sun Aug 23 04:04:45 2020.

 ----------------------------------------------------------------------
 # freq B3LYP/6-31G* scf=qc volume NMR pop=NPA density=current Geom=All
 Check Guess=Read
 ----------------------------------------------------------------------

 Structure from the checkpoint file:  "phosphine_11_conf212.chk"
 -------------------
 Title Card Required
 -------------------
 Charge =  0 Multiplicity = 1

 SCF Done:  E(RB3LYP) =  -2415.08624533     a.u. after    1 cycles

      1  C    Isotropic =    67.5577   Anisotropy =   140.5665

      2  C    Isotropic =    60.2280   Anisotropy =   160.2827

      3  C    Isotropic =    58.7486   Anisotropy =   177.4285

      4  C    Isotropic =    61.8907   Anisotropy =   168.6250

      5  C    Isotropic =    67.5406   Anisotropy =   140.1170

      6  C    Isotropic =    51.6030   Anisotropy =   109.1457

      7  Cl   Isotropic =   720.9446   Anisotropy =   452.9579

      8  P    Isotropic =   364.8174   Anisotropy =    37.3957

      9  C    Isotropic =    58.7326   Anisotropy =   177.4133

     10  C    Isotropic =    61.9039   Anisotropy =   168.5820

     11  C    Isotropic =    67.5358   Anisotropy =   140.0912

     12  C    Isotropic =    51.6031   Anisotropy =   109.1413

     13  C    Isotropic =    67.5655   Anisotropy =   140.6079

     14  C    Isotropic =    60.2272   Anisotropy =   160.2895

     15  Cl   Isotropic =   720.9973   Anisotropy =   452.9283

     16  C    Isotropic =    58.7355   Anisotropy =   177.4198

     17  C    Isotropic =    60.2118   Anisotropy =   160.2782

     18  C    Isotropic =    67.5476   Anisotropy =   140.5839

     19  C    Isotropic =    51.5999   Anisotropy =   109.1475

     20  C    Isotropic =    67.5374   Anisotropy =   140.1127

     21  C    Isotropic =    61.8816   Anisotropy =   168.5941

     22  Cl   Isotropic =   721.0074   Anisotropy =   452.8341

     23  H    Isotropic =    25.0950   Anisotropy =     6.6285

     24  H    Isotropic =    24.7798   Anisotropy =     8.9668

     25  H    Isotropic =    25.5818   Anisotropy =    12.1170

     26  H    Isotropic =    25.2078   Anisotropy =     8.1440

     27  H    Isotropic =    25.5862   Anisotropy =    12.1143

     28  H    Isotropic =    25.2109   Anisotropy =     8.1406

     29  H    Isotropic =    25.0909   Anisotropy =     6.6361

     30  H    Isotropic =    24.7799   Anisotropy =     8.9717

     31  H    Isotropic =    24.7779   Anisotropy =     8.9705

     32  H    Isotropic =    25.0913   Anisotropy =     6.6349

     33  H    Isotropic =    25.2083   Anisotropy =     8.1396

     34  H    Isotropic =    25.5810   Anisotropy =    12.1098

  Exact polarizability: 280.625  -0.029 280.596   0.021  -0.021 185.101
 Approx polarizability: 393.458  -0.071 393.426   0.050  -0.049 343.136

                      1                      2                      3
                      A                      A                      A
 Frequencies --     22.4624                23.1368                29.5304
 Red. masses --      4.7839                 4.9648                 8.4902
 Frc consts  --      0.0014                 0.0016                 0.0044
 IR Inten    --      0.2708                 0.2544                 0.1930

                      4                      5                      6
                      A                      A                      A
 Frequencies --     29.7594                38.2683                40.3320
 Red. masses --      8.0250                 7.8291                 4.6589
 Frc consts  --      0.0042                 0.0068                 0.0045
 IR Inten    --      0.2112                 0.1901                 0.0370

                      7                      8                      9
                      A                      A                      A
 Frequencies --    109.3561               117.6557               117.7451
 Red. masses --      8.8635                 8.8296                 8.8350
 Frc consts  --      0.0625                 0.0720                 0.0722
 IR Inten    --      0.0247                 0.3516                 0.3491

                     10                     11                     12
                      A                      A                      A
 Frequencies --    181.0181               187.3903               187.5699
 Red. masses --     10.0366                 8.7846                 8.7939
 Frc consts  --      0.1938                 0.1817                 0.1823
 IR Inten    --      0.3331                 0.5730                 0.5701

                     13                     14                     15
                      A                      A                      A
 Frequencies --    263.9960               293.6440               293.6990
 Red. masses --      8.9782                 8.4042                 8.4080
 Frc consts  --      0.3687                 0.4270                 0.4273
 IR Inten    --      0.2160                 0.9073                 0.9062

                     16                     17                     18
                      A                      A                      A
 Frequencies --    310.8906               328.7384               328.8084
 Red. masses --      6.0411                 5.9826                 5.9822
 Frc consts  --      0.3440                 0.3809                 0.3811
 IR Inten    --      0.0034                 1.8791                 1.8831

                     19                     20                     21
                      A                      A                      A
 Frequencies --    384.0134               384.0473               414.6593
 Red. masses --      8.0333                 8.0259                 3.0445
 Frc consts  --      0.6980                 0.6975                 0.3084
 IR Inten    --     20.9950                20.9802                 0.0553

                     22                     23                     24
                      A                      A                      A
 Frequencies --    414.7493               416.7226               426.9518
 Red. masses --      3.0457                 3.2146                 6.6008
 Frc consts  --      0.3087                 0.3289                 0.7089
 IR Inten    --      0.0517                 0.1662                 2.9329

                     25                     26                     27
                      A                      A                      A
 Frequencies --    499.5580               509.4048               509.4940
 Red. masses --      5.5225                 3.6455                 3.6478
 Frc consts  --      0.8120                 0.5574                 0.5579
 IR Inten    --      6.8323                19.9117                19.8583

                     28                     29                     30
                      A                      A                      A
 Frequencies --    531.6912               548.8294               548.8523
 Red. masses --      4.5696                 7.4307                 7.4367
 Frc consts  --      0.7611                 1.3187                 1.3199
 IR Inten    --      9.8839                 5.4548                 5.4448

                     31                     32                     33
                      A                      A                      A
 Frequencies --    644.3308               644.3549               645.2811
 Red. masses --      7.1595                 7.1597                 7.1682
 Frc consts  --      1.7513                 1.7514                 1.7586
 IR Inten    --      0.0376                 0.0371                 0.0962

                     34                     35                     36
                      A                      A                      A
 Frequencies --    718.2403               718.3032               718.7547
 Red. masses --      4.5872                 4.5895                 4.6073
 Frc consts  --      1.3943                 1.3952                 1.4024
 IR Inten    --      1.6755                 1.6653                 0.2976

                     37                     38                     39
                      A                      A                      A
 Frequencies --    746.1029               751.6429               751.6492
 Red. masses --      7.2605                 7.2736                 7.2758
 Frc consts  --      2.3813                 2.4212                 2.4219
 IR Inten    --     14.6188                54.3619                54.3207

                     40                     41                     42
                      A                      A                      A
 Frequencies --    833.7485               834.1763               834.2732
 Red. masses --      1.4166                 1.4319                 1.4317
 Frc consts  --      0.5802                 0.5870                 0.5871
 IR Inten    --     23.4213                32.7834                32.9333

                     43                     44                     45
                      A                      A                      A
 Frequencies --    845.8649               845.9758               849.0488
 Red. masses --      1.2466                 1.2466                 1.2502
 Frc consts  --      0.5255                 0.5256                 0.5310
 IR Inten    --      0.6145                 0.6543                 0.3186

                     46                     47                     48
                      A                      A                      A
 Frequencies --    969.5518               969.6620               970.0320
 Red. masses --      1.2757                 1.2767                 1.2882
 Frc consts  --      0.7066                 0.7072                 0.7142
 IR Inten    --      0.1513                 0.1482                 0.2122

                     49                     50                     51
                      A                      A                      A
 Frequencies --    973.3109               973.5014               976.7948
 Red. masses --      1.3462                 1.3446                 1.3215
 Frc consts  --      0.7514                 0.7508                 0.7429
 IR Inten    --      0.0091                 0.0129                 0.4169

                     52                     53                     54
                      A                      A                      A
 Frequencies --   1027.9592              1027.9750              1029.6253
 Red. masses --      4.7589                 4.7636                 4.7012
 Frc consts  --      2.9629                 2.9658                 2.9364
 IR Inten    --     62.7178                62.6958                 5.1171

                     55                     56                     57
                      A                      A                      A
 Frequencies --   1097.7543              1097.7742              1101.4950
 Red. masses --      7.9082                 7.9244                 8.0765
 Frc consts  --      5.6148                 5.6266                 5.7735
 IR Inten    --     81.0766                81.3724                13.6323

                     58                     59                     60
                      A                      A                      A
 Frequencies --   1118.2317              1118.3579              1121.1939
 Red. masses --      2.1227                 2.1223                 2.1023
 Frc consts  --      1.5638                 1.5640                 1.5570
 IR Inten    --     33.0787                32.8467                 6.3880

                     61                     62                     63
                      A                      A                      A
 Frequencies --   1139.3053              1139.4475              1139.5817
 Red. masses --      1.4012                 1.4017                 1.4028
 Frc consts  --      1.0716                 1.0723                 1.0733
 IR Inten    --      0.2651                 1.5335                 2.3278

                     64                     65                     66
                      A                      A                      A
 Frequencies --   1219.1340              1219.4483              1220.8699
 Red. masses --      1.1570                 1.1573                 1.1518
 Frc consts  --      1.0131                 1.0140                 1.0115
 IR Inten    --      4.8284                 4.8054                 0.9144

                     67                     68                     69
                      A                      A                      A
 Frequencies --   1318.3165              1322.2816              1322.3148
 Red. masses --      6.9267                 7.5995                 7.7024
 Frc consts  --      7.0928                 7.8286                 7.9349
 IR Inten    --      1.3154                 2.6671                 2.6667

                     70                     71                     72
                      A                      A                      A
 Frequencies --   1337.2987              1337.5313              1337.8294
 Red. masses --      1.3347                 1.3366                 1.3457
 Frc consts  --      1.4063                 1.4089                 1.4190
 IR Inten    --      0.3858                 0.6631                 1.2323

                     73                     74                     75
                      A                      A                      A
 Frequencies --   1429.5747              1429.9849              1430.0539
 Red. masses --      2.6340                 2.6434                 2.6393
 Frc consts  --      3.1716                 3.1847                 3.1801
 IR Inten    --     19.6926                 6.1123                 6.1137

                     76                     77                     78
                      A                      A                      A
 Frequencies --   1527.1110              1527.1431              1527.2438
 Red. masses --      2.0794                 2.0895                 2.0784
 Frc consts  --      2.8572                 2.8712                 2.8563
 IR Inten    --     58.7313                28.8439                54.5010

                     79                     80                     81
                      A                      A                      A
 Frequencies --   1611.0387              1611.2695              1611.3255
 Red. masses --      6.6420                 6.6648                 6.6564
 Frc consts  --     10.1569                10.1947                10.1825
 IR Inten    --      3.8515                 3.8198                 3.8302

                     82                     83                     84
                      A                      A                      A
 Frequencies --   1633.4337              1633.4740              1634.5072
 Red. masses --      5.4296                 5.4242                 5.4913
 Frc consts  --      8.5354                 8.5273                 8.6437
 IR Inten    --     29.7790                29.6513                13.1104

                     85                     86                     87
                      A                      A                      A
 Frequencies --   3188.0591              3188.1379              3188.1734
 Red. masses --      1.0893                 1.0892                 1.0892
 Frc consts  --      6.5228                 6.5229                 6.5228
 IR Inten    --      5.8480                 4.3521                 2.4876

                     88                     89                     90
                      A                      A                      A
 Frequencies --   3205.5971              3205.6956              3206.2664
 Red. masses --      1.0879                 1.0879                 1.0879
 Frc consts  --      6.5863                 6.5867                 6.5895
 IR Inten    --      0.8601                 0.8612                 0.6714

                     91                     92                     93
                      A                      A                      A
 Frequencies --   3222.5825              3222.6285              3222.7568
 Red. masses --      1.0938                 1.0937                 1.0937
 Frc consts  --      6.6924                 6.6925                 6.6926
 IR Inten    --      2.3168                 2.7004                 9.5482

                     94                     95                     96
                      A                      A                      A
 Frequencies --   3223.6758              3223.6925              3223.9311
 Red. masses --      1.0939                 1.0939                 1.0941
 Frc consts  --      6.6977                 6.6979                 6.7001
 IR Inten    --      5.7803                 5.6076                 0.0244

 - Thermochemistry -
 -------------------
 Temperature   298.150 Kelvin.  Pressure   1.00000 Atm.
 Atom     1 has atomic number  6 and mass  12.00000

 Molecular mass:   363.97422 amu.
 Principal axes and moments of inertia in atomic units:
                           1         2         3
     Eigenvalues --  ******************************
           X            0.99962  -0.02772   0.00000
           Y            0.02772   0.99962  -0.00000
           Z           -0.00000   0.00000   1.00000
 This molecule is an asymmetric top.
 Rotational symmetry number  1.
 Warning -- assumption of classical behavior for rotation
           may cause significant error
 Rotational temperatures (Kelvin)      0.00723     0.00723     0.00405
 Rotational constants (GHZ):           0.15063     0.15060     0.08440
 Zero-point vibrational energy     643762.3 (Joules/Mol)
                                  153.86289 (Kcal/Mol)
 Warning -- explicit consideration of  30 degrees of freedom as
           vibrations may cause significant error
 Vibrational temperatures:     32.32    33.29    42.49    42.82    55.06
          (Kelvin)             58.03   157.34   169.28   169.41   260.44
                              269.61   269.87   379.83   422.49   422.57
                              447.30   472.98   473.08   552.51   552.56
                              596.60   596.73   599.57   614.29   718.75
                              732.92   733.05   764.99   789.64   789.68
                              927.05   927.08   928.42  1033.39  1033.48
                             1034.13  1073.48  1081.45  1081.46  1199.58
                             1200.19  1200.33  1217.01  1217.17  1221.59
                             1394.97  1395.13  1395.66  1400.38  1400.65
                             1405.39  1479.00  1479.03  1481.40  1579.42
                             1579.45  1584.81  1608.89  1609.07  1613.15
                             1639.21  1639.41  1639.60  1754.06  1754.51
                             1756.56  1896.76  1902.47  1902.52  1924.07
                             1924.41  1924.84  2056.84  2057.43  2057.53
                             2197.17  2197.22  2197.36  2317.93  2318.26
                             2318.34  2350.15  2350.20  2351.69  4586.91
                             4587.02  4587.07  4612.14  4612.28  4613.10
                             4636.58  4636.64  4636.83  4638.15  4638.17
                             4638.52

 Zero-point correction=                           0.245196 (Hartree/Particle)
 Thermal correction to Energy=                    0.264844
 Thermal correction to Enthalpy=                  0.265788
 Thermal correction to Gibbs Free Energy=         0.192321
 Sum of electronic and zero-point Energies=          -2414.841049
 Sum of electronic and thermal Energies=             -2414.821401
 Sum of electronic and thermal Enthalpies=           -2414.820457
 Sum of electronic and thermal Free Energies=        -2414.893925

                     E (Thermal)             CV                S
                      KCal/Mol        Cal/Mol-Kelvin    Cal/Mol-Kelvin
 Total                  166.192             74.122            154.626
 Electronic               0.000              0.000              0.000
 Translational            0.889              2.981             43.569
 Rotational               0.889              2.981             36.372
 Vibrational            164.415             68.160             74.685
 Vibration     1          0.593              1.985              6.404
 Vibration     2          0.593              1.985              6.345
 Vibration     3          0.593              1.984              5.861
 Vibration     4          0.594              1.984              5.845
 Vibration     5          0.594              1.982              5.347
 Vibration     6          0.594              1.981              5.243
 Vibration     7          0.606              1.942              3.280
 Vibration     8          0.608              1.935              3.139
 Vibration     9          0.608              1.935              3.137
 Vibration    10          0.630              1.866              2.318
 Vibration    11          0.632              1.857              2.253
 Vibration    12          0.632              1.857              2.252
 Vibration    13          0.671              1.739              1.635
 Vibration    14          0.688              1.686              1.453
 Vibration    15          0.688              1.685              1.453
 Vibration    16          0.700              1.653              1.358
 Vibration    17          0.712              1.618              1.266
 Vibration    18          0.712              1.618              1.266
 Vibration    19          0.753              1.504              1.023
 Vibration    20          0.753              1.504              1.023
 Vibration    21          0.778              1.438              0.910
 Vibration    22          0.778              1.438              0.910
 Vibration    23          0.780              1.434              0.903
 Vibration    24          0.789              1.412              0.869
 Vibration    25          0.855              1.251              0.659
 Vibration    26          0.865              1.229              0.635
 Vibration    27          0.865              1.229              0.635
 Vibration    28          0.887              1.180              0.583
 Vibration    29          0.904              1.142              0.547
 Vibration    30          0.904              1.142              0.547

                           ! Non-Optimized Parameters !
 Normal termination of Gaussian 16 at Sun Aug 23 04:20:04 2020.
 Gaussian 16:  ES64L-G16RevA.03 25-Dec-2016

 ----------------------------------------------------------------------
 # TD(NStates=10, Root=1) B3LYP/6-31G* scf=qc volume pop=NPA density=cu
 rrent Geom=AllCheck Guess=Read
 ----------------------------------------------------------------------

 Structure from the checkpoint file:  "phosphine_11_conf213.chk"
 -------------------
 Title Card Required
 -------------------
 Charge =  0 Multiplicity = 1

                         Standard orientation:
 ---------------------------------------------------------------------
 Center     Atomic      Atomic             Coordinates (Angstroms)
 Number     Number       Type             X           Y           Z
 ---------------------------------------------------------------------
      1          6           0       -0.721477    3.986304    0.852957
      2          6           0       -0.693151    2.693334    1.372342
      3          6           0        0.032661    1.668450    0.742580
      4          6           0        0.753944    1.982223   -0.419040
      5          6           0        0.745673    3.274728   -0.945549
      6          6           0        0.003014    4.265569   -0.305609
      7         17           0       -0.013366    5.895141   -0.963585
      8         15           0       -0.000033   -0.000231    1.547374
      9          6           0       -1.461374   -0.806231    0.742271
     10          6           0       -2.094532   -0.337673   -0.418590
     11          6           0       -3.209855   -0.990978   -0.945017
     12          6           0       -3.695940   -2.130229   -0.305772
     13          6           0       -3.091019   -2.618852    0.852021
     14          6           0       -1.985347   -1.947959    1.371340
     15         17           0       -5.099205   -2.958990   -0.963588
     16          6           0        1.428765   -0.862734    0.742436
     17          6           0        2.678987   -0.747460    1.372862
     18          6           0        3.812993   -1.369170    0.853407
     19          6           0        3.692946   -2.135159   -0.305900
     20          6           0        2.463773   -2.282069   -0.946515
     21          6           0        1.340197   -1.643204   -0.419937
     22         17           0        5.112505   -2.935502   -0.963929
     23          1           0       -1.287712    4.770456    1.344296
     24          1           0       -1.242442    2.481525    2.286543
     25          1           0        1.335091    1.215312   -0.921816
     26          1           0        1.308156    3.510462   -1.842967
     27          1           0       -1.721509    0.549610   -0.920835
     28          1           0       -3.695875   -0.621087   -1.841834
     29          1           0       -3.486463   -3.501824    1.342853
     30          1           0       -1.526674   -2.318399    2.284986
     31          1           0        2.769908   -0.166730    2.287649
     32          1           0        4.775006   -1.271542    1.345269
     33          1           0        2.386949   -2.886266   -1.844492
     34          1           0        0.385652   -1.762423   -0.923232
 ---------------------------------------------------------------------

 SCF Done:  E(RB3LYP) =  -2415.08624533     a.u. after    1 cycles

 Excitation energies and oscillator strengths:

 Excited State   1:      Singlet-A      4.4056 eV  281.42 nm  f=0.1833  <S**2>=0.000
      93 -> 94         0.69562
 This state for optimization and/or second-order correction.
 Total Energy, E(TD-HF/TD-DFT) =  -2414.92434287
 Copying the excited state density for this state as the 1-particle RhoCI density.

 Excited State   2:      Singlet-A      4.4063 eV  281.38 nm  f=0.1838  <S**2>=0.000
      93 -> 95         0.69561

 Excited State   3:      Singlet-A      4.6114 eV  268.86 nm  f=0.0036  <S**2>=0.000
      89 -> 94        -0.10603
      90 -> 95        -0.10616
      93 -> 96         0.67974

 Excited State   4:      Singlet-A      4.9173 eV  252.14 nm  f=0.0001  <S**2>=0.000
      88 -> 94         0.10821
      89 -> 97         0.10158
      93 -> 98         0.64552

 Excited State   5:      Singlet-A      4.9177 eV  252.12 nm  f=0.0001  <S**2>=0.000
      88 -> 95        -0.10801
      90 -> 97        -0.10187
      93 -> 99         0.64534

 Excited State   6:      Singlet-A      5.0219 eV  246.89 nm  f=0.0090  <S**2>=0.000
      91 -> 94        -0.11017
      92 -> 95        -0.11036
      93 -> 97         0.66882

 Excited State   7:      Singlet-A      5.2598 eV  235.72 nm  f=0.0017  <S**2>=0.000
      89 -> 94        -0.12706
      90 -> 95        -0.12596
      91 -> 94        -0.27273
      91 -> 95        -0.35023
      91 -> 98        -0.12853
      92 -> 94         0.35181
      92 -> 95        -0.27244
      92 -> 99         0.12777
      93 -> 96        -0.10382

 Excited State   8:      Singlet-A      5.3614 eV  231.25 nm  f=0.0049  <S**2>=0.000
      87 -> 94         0.10414
      88 -> 94        -0.18771
      89 -> 95         0.18641
      89 -> 97        -0.11058
      90 -> 94         0.18634
      91 -> 94        -0.10647
      91 -> 95         0.10027
      91 -> 96         0.39230
      91 -> 98        -0.12719
      92 -> 95         0.10721
      92 -> 96         0.20503
      92 -> 99        -0.12725
      93 -> 98         0.22564

 Excited State   9:      Singlet-A      5.3617 eV  231.24 nm  f=0.0049  <S**2>=0.000
      87 -> 95         0.10378
      88 -> 95        -0.18681
      89 -> 94         0.18648
      90 -> 95        -0.18629
      90 -> 97        -0.11058
      91 -> 94         0.10027
      91 -> 95         0.10416
      91 -> 96        -0.20439
      91 -> 99        -0.12663
      92 -> 94         0.10666
      92 -> 95        -0.10120
      92 -> 96         0.39320
      92 -> 98         0.12733
      93 -> 99        -0.22602

 Excited State  10:      Singlet-A      5.4214 eV  228.69 nm  f=0.1615  <S**2>=0.000
      91 -> 94         0.23330
      91 -> 95         0.40135
      92 -> 94         0.40201
      92 -> 95        -0.23193
      92 -> 96        -0.13778

 The electronic state is 1-A.
 Alpha  occ. eigenvalues -- -101.55493-101.55492-101.55491 -77.10094 -10.26329
 Alpha  occ. eigenvalues --  -10.26328 -10.26327 -10.21418 -10.21418 -10.21417
 Alpha  occ. eigenvalues --  -10.21367 -10.21367 -10.21366 -10.21346 -10.21346
 Alpha  occ. eigenvalues --  -10.21345 -10.21313 -10.21312 -10.21311 -10.21249
 Alpha  occ. eigenvalues --  -10.21248 -10.21247  -9.47125  -9.47124  -9.47123
 Alpha  occ. eigenvalues --   -7.23520  -7.23519  -7.23518  -7.22555  -7.22554
 Alpha  occ. eigenvalues --   -7.22554  -7.22517  -7.22517  -7.22516  -6.56809
 Alpha  occ. eigenvalues --   -4.73070  -4.73070  -4.72565  -0.89964  -0.89791
 Alpha  occ. eigenvalues --   -0.89790  -0.85153  -0.84237  -0.84236  -0.76898
 Alpha  occ. eigenvalues --   -0.76780  -0.76780  -0.76742  -0.73906  -0.73906
 Alpha  occ. eigenvalues --   -0.65058  -0.63150  -0.62987  -0.62986  -0.60497
 Alpha  occ. eigenvalues --   -0.60496  -0.57615  -0.52431  -0.52431  -0.49746
 Alpha  occ. eigenvalues --   -0.48087  -0.47999  -0.47998  -0.47167  -0.47167
 Alpha  occ. eigenvalues --   -0.46321  -0.44340  -0.44246  -0.44245  -0.42725
 Alpha  occ. eigenvalues --   -0.42724  -0.40320  -0.40238  -0.40237  -0.39580
 Alpha  occ. eigenvalues --   -0.37219  -0.37219  -0.37129  -0.35189  -0.35187
 Alpha  occ. eigenvalues --   -0.34135  -0.33461  -0.33459  -0.31867  -0.31862
 Alpha  occ. eigenvalues --   -0.31861  -0.27684  -0.27415  -0.27142  -0.27141
 Alpha  occ. eigenvalues --   -0.25829  -0.25827  -0.22676
 Alpha virt. eigenvalues --   -0.03957  -0.03955  -0.03033  -0.01964  -0.01787
 Alpha virt. eigenvalues --   -0.01785   0.02242   0.02243   0.02402   0.05591
 Alpha virt. eigenvalues --    0.05594   0.10344   0.12156   0.12345   0.12346

 Mulliken charges:
               1
     1  C   -0.117762
     2  C   -0.174286
     3  C   -0.124099
     4  C   -0.162084
     5  C   -0.121924
     6  C   -0.093467
     7  Cl  -0.031727
     8  P    0.446549
     9  C   -0.078812
    10  C   -0.148716
    11  C   -0.116260
    12  C   -0.063276
    13  C   -0.115960
    14  C   -0.155885
    15  Cl   0.016720
    16  C   -0.112915
    17  C   -0.159074
    18  C   -0.125932
    19  C   -0.094205
    20  C   -0.114163
    21  C   -0.173330
    22  Cl  -0.034237
    23  H    0.148884
    24  H    0.132499
    25  H    0.156095
    26  H    0.153303
    27  H    0.183077
    28  H    0.174428
    29  H    0.170842
    30  H    0.162501
    31  H    0.137797
    32  H    0.149420
    33  H    0.151314
    34  H    0.134686
 Sum of Mulliken charges =   0.00000

 Dipole moment (field-independent basis, Debye):
    X=             -3.7262    Y=             -1.9094    Z=              1.9728  Tot=              4.6284
 Quadrupole moment (field-independent basis, Debye-Ang):
   XX=           -163.3780   YY=           -171.7245   ZZ=           -145.0441
   XY=              7.9109   XZ=              0.9847   YZ=             -0.3003

 Summary of Natural Population Analysis:

                                       Natural Population
                Natural  -----------------------------------------------
    Atom  No    Charge         Core      Valence    Rydberg      Total
 -----------------------------------------------------------------------
      C    1   -0.24967      1.99894     4.23484    0.01589     6.24967
      C    2   -0.22456      1.99901     4.20946    0.01609     6.22456
      C    3   -0.46750      1.99888     4.44246    0.02616     6.46750
      C    4   -0.22260      1.99899     4.20640    0.01720     6.22260
      C    5   -0.25034      1.99893     4.23541    0.01600     6.25034
      C    6   -0.07654      1.99854     4.05574    0.02226     6.07654
     Cl    7   -0.00739      9.99967     6.98742    0.02030    17.00739
      P    8    1.21202      9.99758     3.74055    0.04984    13.78798
      C    9   -0.37551      1.99891     4.35186    0.02474     6.37551
      C   10   -0.19567      1.99900     4.18068    0.01599     6.19567
      C   11   -0.24021      1.99892     4.22606    0.01523     6.24021
      C   12   -0.01474      1.99855     3.99393    0.02227     6.01474
      C   13   -0.24603      1.99893     4.23171    0.01539     6.24603
      C   14   -0.19066      1.99902     4.17654    0.01510     6.19066
     Cl   15    0.02886      9.99967     6.95220    0.01927    16.97114
      C   16   -0.45205      1.99887     4.42887    0.02431     6.45205
      C   17   -0.20142      1.99901     4.18668    0.01573     6.20142
      C   18   -0.26464      1.99894     4.24910    0.01660     6.26464
      C   19   -0.07836      1.99854     4.05760    0.02221     6.07836
      C   20   -0.23657      1.99893     4.22211    0.01553     6.23657
      C   21   -0.25074      1.99899     4.23422    0.01753     6.25074
     Cl   22   -0.00956      9.99967     6.98960    0.02029    17.00956
      H   23    0.25098      0.00000     0.74793    0.00109     0.74902
      H   24    0.23423      0.00000     0.76484    0.00093     0.76577
      H   25    0.25062      0.00000     0.74788    0.00151     0.74938
      H   26    0.25394      0.00000     0.74501    0.00105     0.74606
      H   27    0.26612      0.00000     0.73270    0.00118     0.73388
      H   28    0.26368      0.00000     0.73527    0.00105     0.73632
      H   29    0.26154      0.00000     0.73741    0.00105     0.73846
      H   30    0.25067      0.00000     0.74815    0.00118     0.74933
      H   31    0.23834      0.00000     0.76058    0.00109     0.76166
      H   32    0.25198      0.00000     0.74699    0.00103     0.74802
      H   33    0.25274      0.00000     0.74621    0.00105     0.74726
      H   34    0.23904      0.00000     0.75961    0.00135     0.76096
 =======================================================================
   * Total *   -0.00000     75.97648   109.56602    0.45749   186.00000

 Normal termination of Gaussian 16 at Sun Aug 23 04:36:56 2020.
