 Gaussian 16, Revision A.03,

 ---------------------------------
 # opt=CalcAll B3LYP/6-31G* scf=qc
 ---------------------------------

 -------------------
 Title Card Required
 -------------------
 Symbolic Z-matrix:
 Charge =  0 Multiplicity = 1

 SCF Done:  E(RB3LYP) =  -814.862030523     a.u. after    6 cycles
 SCF Done:  E(RB3LYP) =  -814.870561567     a.u. after   13 cycles
 SCF Done:  E(RB3LYP) =  -814.897397974     a.u. after   13 cycles
 SCF Done:  E(RB3LYP) =  -814.898993141     a.u. after   15 cycles
 SCF Done:  E(RB3LYP) =  -814.904716616     a.u. after   11 cycles
 SCF Done:  E(RB3LYP) =  -814.906226598     a.u. after   11 cycles
 SCF Done:  E(RB3LYP) =  -814.906820170     a.u. after   11 cycles
 SCF Done:  E(RB3LYP) =  -814.906998731     a.u. after   15 cycles
 SCF Done:  E(RB3LYP) =  -814.907103559     a.u. after    9 cycles
 SCF Done:  E(RB3LYP) =  -814.907112515     a.u. after    7 cycles
 SCF Done:  E(RB3LYP) =  -814.907116303     a.u. after    4 cycles
 SCF Done:  E(RB3LYP) =  -814.907117072     a.u. after    3 cycles
 Optimization completed on the basis of negligible forces.
    -- Stationary point found.
 Normal termination of Gaussian 16 at Sun Aug 23 10:40:24 2020.

 ----------------------------------------------------------------------
 # freq B3LYP/6-31G* scf=qc volume NMR pop=NPA density=current Geom=All
 Check Guess=Read
 ----------------------------------------------------------------------

 Structure from the checkpoint file:  "phosphine_2_conf62.chk"
 -------------------
 Title Card Required
 -------------------
 Charge =  0 Multiplicity = 1

 SCF Done:  E(RB3LYP) =  -814.907117072     a.u. after    1 cycles

      1  C    Isotropic =   176.0144   Anisotropy =    18.8116

      2  C    Isotropic =   163.8277   Anisotropy =    17.2284

      3  C    Isotropic =   160.8797   Anisotropy =    20.3735

      4  C    Isotropic =   159.3508   Anisotropy =    25.2975

      5  H    Isotropic =    31.4157   Anisotropy =     4.6687

      6  H    Isotropic =    30.2902   Anisotropy =     6.4187

      7  P    Isotropic =   398.5402   Anisotropy =    34.0407

      8  C    Isotropic =   159.6936   Anisotropy =    29.0568

      9  H    Isotropic =    30.3223   Anisotropy =     5.1926

     10  H    Isotropic =    31.1583   Anisotropy =     6.2558

     11  C    Isotropic =   162.1993   Anisotropy =    15.4109

     12  C    Isotropic =   167.6906   Anisotropy =    11.9070

     13  C    Isotropic =   176.4192   Anisotropy =    19.0194

     14  C    Isotropic =   157.3099   Anisotropy =    21.1251

     15  H    Isotropic =    30.7698   Anisotropy =     4.9755

     16  H    Isotropic =    30.8637   Anisotropy =     5.7672

     17  C    Isotropic =   163.5044   Anisotropy =    14.6808

     18  C    Isotropic =   162.0897   Anisotropy =    18.9337

     19  C    Isotropic =   173.7633   Anisotropy =    12.5817

     20  H    Isotropic =    31.1452   Anisotropy =    10.4043

     21  H    Isotropic =    30.9361   Anisotropy =     5.9637

     22  H    Isotropic =    31.4149   Anisotropy =     8.0983

     23  H    Isotropic =    30.8070   Anisotropy =     6.9549

     24  H    Isotropic =    30.4546   Anisotropy =     9.0956

     25  H    Isotropic =    30.5709   Anisotropy =     6.4843

     26  H    Isotropic =    30.6621   Anisotropy =     5.7761

     27  H    Isotropic =    30.4670   Anisotropy =     6.1166

     28  H    Isotropic =    30.6100   Anisotropy =     9.1120

     29  H    Isotropic =    30.1561   Anisotropy =     6.1546

     30  H    Isotropic =    30.7980   Anisotropy =     9.3452

     31  H    Isotropic =    30.9565   Anisotropy =     6.1525

     32  H    Isotropic =    31.1792   Anisotropy =    10.1366

     33  H    Isotropic =    31.5540   Anisotropy =     9.1385

     34  H    Isotropic =    30.7600   Anisotropy =     4.9490

     35  H    Isotropic =    30.4056   Anisotropy =     9.3682

     36  H    Isotropic =    30.5036   Anisotropy =     9.7023

     37  H    Isotropic =    30.7140   Anisotropy =     7.3391

     38  H    Isotropic =    31.3950   Anisotropy =     6.8434

     39  H    Isotropic =    31.2025   Anisotropy =    10.1762

     40  H    Isotropic =    30.5721   Anisotropy =     6.9355

  Exact polarizability: 165.637  -0.226 161.650  -1.107  -1.049 130.852
 Approx polarizability: 213.289  -0.160 212.349  -3.822   0.062 196.907

                      1                      2                      3
                      A                      A                      A
 Frequencies --     18.6972                25.7971                36.2026
 Red. masses --      2.9984                 3.0231                 2.5571
 Frc consts  --      0.0006                 0.0012                 0.0020
 IR Inten    --      0.0051                 0.0045                 0.0010

                      4                      5                      6
                      A                      A                      A
 Frequencies --     41.4135                55.0440                59.0418
 Red. masses --      2.8312                 2.5026                 2.7401
 Frc consts  --      0.0029                 0.0045                 0.0056
 IR Inten    --      0.0285                 0.1055                 0.0238

                      7                      8                      9
                      A                      A                      A
 Frequencies --    100.5624               122.7091               128.9514
 Red. masses --      2.2378                 2.6881                 1.9881
 Frc consts  --      0.0133                 0.0238                 0.0195
 IR Inten    --      0.0489                 0.2872                 0.1625

                     10                     11                     12
                      A                      A                      A
 Frequencies --    143.1680               153.6372               202.0540
 Red. masses --      1.9873                 2.3521                 1.8514
 Frc consts  --      0.0240                 0.0327                 0.0445
 IR Inten    --      0.1571                 0.3905                 0.1616

                     13                     14                     15
                      A                      A                      A
 Frequencies --    213.1189               230.1898               245.8624
 Red. masses --      1.9280                 1.4405                 1.4636
 Frc consts  --      0.0516                 0.0450                 0.0521
 IR Inten    --      0.0679                 0.1731                 0.1524

                     16                     17                     18
                      A                      A                      A
 Frequencies --    267.1865               287.8197               305.9580
 Red. masses --      1.4501                 2.0930                 2.1041
 Frc consts  --      0.0610                 0.1022                 0.1160
 IR Inten    --      0.1953                 0.3587                 0.2186

                     19                     20                     21
                      A                      A                      A
 Frequencies --    324.2606               336.2820               371.3614
 Red. masses --      2.1218                 2.6643                 2.0824
 Frc consts  --      0.1314                 0.1775                 0.1692
 IR Inten    --      0.0509                 0.8059                 0.1609

                     22                     23                     24
                      A                      A                      A
 Frequencies --    430.3717               449.9318               470.0860
 Red. masses --      2.3519                 1.7815                 2.3237
 Frc consts  --      0.2567                 0.2125                 0.3025
 IR Inten    --      0.9823                 0.9635                 1.8578

                     25                     26                     27
                      A                      A                      A
 Frequencies --    614.0747               655.0967               701.1446
 Red. masses --      2.9547                 3.7187                 2.0731
 Frc consts  --      0.6565                 0.9403                 0.6005
 IR Inten    --      3.1088                12.3334                 8.9580

                     28                     29                     30
                      A                      A                      A
 Frequencies --    746.2704               759.9817               779.3375
 Red. masses --      1.3647                 1.3517                 1.2165
 Frc consts  --      0.4478                 0.4600                 0.4353
 IR Inten    --      4.8098                 3.6497                 3.5183

                     31                     32                     33
                      A                      A                      A
 Frequencies --    787.5615               794.1304               802.6036
 Red. masses --      1.4094                 2.0191                 2.0336
 Frc consts  --      0.5151                 0.7502                 0.7718
 IR Inten    --      5.7574                 4.4538                 2.9671

                     34                     35                     36
                      A                      A                      A
 Frequencies --    868.3343               876.4599               890.7537
 Red. masses --      2.0819                 2.1048                 1.4971
 Frc consts  --      0.9249                 0.9526                 0.6999
 IR Inten    --      1.6646                 1.7288                 2.4799

                     37                     38                     39
                      A                      A                      A
 Frequencies --    905.4827               916.2764               925.3065
 Red. masses --      1.5176                 1.5791                 1.3871
 Frc consts  --      0.7331                 0.7811                 0.6997
 IR Inten    --      4.3564                 3.9019                 8.0025

                     40                     41                     42
                      A                      A                      A
 Frequencies --    984.0455               986.9971               987.6115
 Red. masses --      2.0339                 1.9595                 1.9872
 Frc consts  --      1.1604                 1.1247                 1.1420
 IR Inten    --      2.1754                 5.0391                 2.3594

                     43                     44                     45
                      A                      A                      A
 Frequencies --   1062.3087              1064.9519              1079.6567
 Red. masses --      1.7021                 1.4098                 1.6509
 Frc consts  --      1.1317                 0.9420                 1.1338
 IR Inten    --      1.5258                 1.5204                 0.8962

                     46                     47                     48
                      A                      A                      A
 Frequencies --   1085.3618              1094.3339              1101.4870
 Red. masses --      1.8658                 1.4485                 1.6512
 Frc consts  --      1.2950                 1.0221                 1.1803
 IR Inten    --      0.5462                 0.3812                 5.3360

                     49                     50                     51
                      A                      A                      A
 Frequencies --   1109.8232              1119.5151              1124.8940
 Red. masses --      1.5809                 1.8606                 1.7026
 Frc consts  --      1.1472                 1.3739                 1.2694
 IR Inten    --      0.4665                 2.4713                 4.1851

                     52                     53                     54
                      A                      A                      A
 Frequencies --   1203.5944              1225.4437              1230.9579
 Red. masses --      1.3814                 1.4843                 1.4152
 Frc consts  --      1.1791                 1.3132                 1.2634
 IR Inten    --      2.7250                 7.0383                 0.6211

                     55                     56                     57
                      A                      A                      A
 Frequencies --   1245.9787              1254.1257              1262.0340
 Red. masses --      1.3135                 1.3800                 1.3313
 Frc consts  --      1.2015                 1.2789                 1.2493
 IR Inten    --      5.7861                 6.3050                 0.2946

                     58                     59                     60
                      A                      A                      A
 Frequencies --   1314.6451              1315.8556              1321.4267
 Red. masses --      1.2248                 1.2365                 1.2412
 Frc consts  --      1.2472                 1.2614                 1.2769
 IR Inten    --      2.1045                 2.2610                 3.4683

                     61                     62                     63
                      A                      A                      A
 Frequencies --   1335.1550              1338.8234              1341.8631
 Red. masses --      1.1543                 1.1622                 1.1581
 Frc consts  --      1.2123                 1.2274                 1.2286
 IR Inten    --      0.1007                 1.5048                 3.0452

                     64                     65                     66
                      A                      A                      A
 Frequencies --   1392.7955              1395.4740              1396.8754
 Red. masses --      1.4156                 1.3696                 1.3204
 Frc consts  --      1.6180                 1.5714                 1.5180
 IR Inten    --      1.5613                 5.1393                11.5822

                     67                     68                     69
                      A                      A                      A
 Frequencies --   1399.4586              1402.9199              1404.3266
 Red. masses --      1.3292                 1.4179                 1.4365
 Frc consts  --      1.5337                 1.6442                 1.6691
 IR Inten    --     12.7456                 1.9287                 6.9312

                     70                     71                     72
                      A                      A                      A
 Frequencies --   1442.1070              1442.7693              1447.0484
 Red. masses --      1.2624                 1.2619                 1.2541
 Frc consts  --      1.5468                 1.5477                 1.5473
 IR Inten    --      5.7986                 6.5066                 4.8006

                     73                     74                     75
                      A                      A                      A
 Frequencies --   1488.0455              1493.7748              1495.1396
 Red. masses --      1.0850                 1.0866                 1.0865
 Frc consts  --      1.4155                 1.4285                 1.4310
 IR Inten    --      3.0791                 3.4792                 2.2839

                     76                     77                     78
                      A                      A                      A
 Frequencies --   1515.5241              1516.6316              1517.7933
 Red. masses --      1.0639                 1.0713                 1.0665
 Frc consts  --      1.4398                 1.4518                 1.4476
 IR Inten    --      1.5295                 2.1968                 2.0857

                     79                     80                     81
                      A                      A                      A
 Frequencies --   1519.4311              1520.2249              1521.0380
 Red. masses --      1.0733                 1.0794                 1.0779
 Frc consts  --      1.4599                 1.4698                 1.4692
 IR Inten    --      1.6191                 1.1143                 0.6528

                     82                     83                     84
                      A                      A                      A
 Frequencies --   1530.4745              1532.4574              1532.7416
 Red. masses --      1.0462                 1.0545                 1.0598
 Frc consts  --      1.4438                 1.4591                 1.4670
 IR Inten    --      8.2325                 5.7841                 7.4924

                     85                     86                     87
                      A                      A                      A
 Frequencies --   1534.0808              1538.4449              1538.9061
 Red. masses --      1.0775                 1.0608                 1.0551
 Frc consts  --      1.4940                 1.4792                 1.4722
 IR Inten    --     10.3298                 4.7136                 5.3781

                     88                     89                     90
                      A                      A                      A
 Frequencies --   3011.9071              3014.3097              3015.7616
 Red. masses --      1.0644                 1.0635                 1.0632
 Frc consts  --      5.6891                 5.6932                 5.6973
 IR Inten    --     11.4376                 9.4723                26.5455

                     91                     92                     93
                      A                      A                      A
 Frequencies --   3020.5809              3023.0946              3024.9264
 Red. masses --      1.0629                 1.0642                 1.0621
 Frc consts  --      5.7140                 5.7301                 5.7260
 IR Inten    --     24.1128                 6.9166                45.2961

                     94                     95                     96
                      A                      A                      A
 Frequencies --   3026.0199              3030.0457              3036.6603
 Red. masses --      1.0624                 1.0631                 1.0677
 Frc consts  --      5.7315                 5.7508                 5.8011
 IR Inten    --     47.6150                21.9999                19.5905

                     97                     98                     99
                      A                      A                      A
 Frequencies --   3041.9369              3043.8708              3045.4696
 Red. masses --      1.0387                 1.0377                 1.0427
 Frc consts  --      5.6628                 5.6647                 5.6979
 IR Inten    --     27.0666                21.6443                24.3198

                    100                    101                    102
                      A                      A                      A
 Frequencies --   3052.4890              3054.3328              3057.0614
 Red. masses --      1.0958                 1.0915                 1.0972
 Frc consts  --      6.0156                 5.9996                 6.0415
 IR Inten    --     18.6464                57.7500                 9.8324

                    103                    104                    105
                      A                      A                      A
 Frequencies --   3058.3181              3063.0032              3069.0171
 Red. masses --      1.1018                 1.0994                 1.0997
 Frc consts  --      6.0719                 6.0772                 6.1026
 IR Inten    --     63.4050                14.1794                33.1200

                    106                    107                    108
                      A                      A                      A
 Frequencies --   3073.7104              3081.3722              3084.3674
 Red. masses --      1.0993                 1.0979                 1.0993
 Frc consts  --      6.1191                 6.1419                 6.1618
 IR Inten    --     22.9105                32.0463                64.8797

                    109                    110                    111
                      A                      A                      A
 Frequencies --   3105.1024              3106.7696              3107.9545
 Red. masses --      1.1022                 1.1010                 1.1017
 Frc consts  --      6.2611                 6.2612                 6.2698
 IR Inten    --     52.4887                45.2215                47.6801

                    112                    113                    114
                      A                      A                      A
 Frequencies --   3114.3860              3114.6861              3129.7735
 Red. masses --      1.1017                 1.1017                 1.1001
 Frc consts  --      6.2962                 6.2973                 6.3492
 IR Inten    --     60.4841                49.6185                40.0533

 - Thermochemistry -
 -------------------
 Temperature   298.150 Kelvin.  Pressure   1.00000 Atm.
 Atom     1 has atomic number  6 and mass  12.00000

 Molecular mass:   202.18504 amu.
 Principal axes and moments of inertia in atomic units:
                           1         2         3
     Eigenvalues --  3470.178854218.207526698.67325
           X            0.99994  -0.01082   0.00215
           Y            0.01082   0.99994   0.00030
           Z           -0.00215  -0.00027   1.00000
 This molecule is an asymmetric top.
 Rotational symmetry number  1.
 Warning -- assumption of classical behavior for rotation
           may cause significant error
 Rotational temperatures (Kelvin)      0.02496     0.02053     0.01293
 Rotational constants (GHZ):           0.52007     0.42785     0.26942
 Zero-point vibrational energy     977102.7 (Joules/Mol)
                                  233.53316 (Kcal/Mol)
 Warning -- explicit consideration of  25 degrees of freedom as
           vibrations may cause significant error
 Vibrational temperatures:     26.90    37.12    52.09    59.58    79.20
          (Kelvin)             84.95   144.69   176.55   185.53   205.99
                              221.05   290.71   306.63   331.19   353.74
                              384.42   414.11   440.21   466.54   483.83
                              534.31   619.21   647.35   676.35   883.52
                              942.54  1008.79  1073.72  1093.44  1121.29
                             1133.13  1142.58  1154.77  1249.34  1261.03
                             1281.60  1302.79  1318.32  1331.31  1415.82
                             1420.07  1420.95  1528.43  1532.23  1553.39
                             1561.59  1574.50  1584.79  1596.79  1610.73
                             1618.47  1731.70  1763.14  1771.07  1792.69
                             1804.41  1815.79  1891.48  1893.22  1901.24
                             1920.99  1926.27  1930.64  2003.92  2007.78
                             2009.79  2013.51  2018.49  2020.51  2074.87
                             2075.82  2081.98  2140.97  2149.21  2151.17
                             2180.50  2182.09  2183.77  2186.12  2187.26
                             2188.43  2202.01  2204.86  2205.27  2207.20
                             2213.48  2214.14  4333.46  4336.92  4339.01
                             4345.94  4349.56  4352.19  4353.77  4359.56
                             4369.08  4376.67  4379.45  4381.75  4391.85
                             4394.50  4398.43  4400.24  4406.98  4415.63
                             4422.38  4433.41  4437.72  4467.55  4469.95
                             4471.65  4480.91  4481.34  4503.05

 Zero-point correction=                           0.372159 (Hartree/Particle)
 Thermal correction to Energy=                    0.390712
 Thermal correction to Enthalpy=                  0.391656
 Thermal correction to Gibbs Free Energy=         0.322588
 Sum of electronic and zero-point Energies=           -814.534958
 Sum of electronic and thermal Energies=              -814.516405
 Sum of electronic and thermal Enthalpies=            -814.515461
 Sum of electronic and thermal Free Energies=         -814.584529

                     E (Thermal)             CV                S
                      KCal/Mol        Cal/Mol-Kelvin    Cal/Mol-Kelvin
 Total                  245.176             66.134            145.367
 Electronic               0.000              0.000              0.000
 Translational            0.889              2.981             41.817
 Rotational               0.889              2.981             32.950
 Vibrational            243.398             60.173             70.601
 Vibration     1          0.593              1.986              6.768
 Vibration     2          0.593              1.985              6.129
 Vibration     3          0.594              1.982              5.457
 Vibration     4          0.594              1.981              5.190
 Vibration     5          0.596              1.976              4.627
 Vibration     6          0.596              1.974              4.489
 Vibration     7          0.604              1.949              3.443
 Vibration     8          0.610              1.930              3.057
 Vibration     9          0.611              1.924              2.962
 Vibration    10          0.616              1.910              2.761
 Vibration    11          0.619              1.899              2.627
 Vibration    12          0.639              1.837              2.114
 Vibration    13          0.644              1.821              2.017
 Vibration    14          0.652              1.795              1.877
 Vibration    15          0.660              1.770              1.760
 Vibration    16          0.672              1.733              1.614
 Vibration    17          0.685              1.696              1.487
 Vibration    18          0.696              1.662              1.384
 Vibration    19          0.709              1.627              1.289
 Vibration    20          0.717              1.603              1.230
 Vibration    21          0.743              1.531              1.074
 Vibration    22          0.792              1.404              0.857
 Vibration    23          0.809              1.361              0.796
 Vibration    24          0.827              1.316              0.737
 Vibration    25          0.973              1.002              0.426

 Optimization completed.
    -- Stationary point found.
 Normal termination of Gaussian 16 at Sun Aug 23 10:47:57 2020.
 Gaussian 16:  ES64L-G16RevA.03 25-Dec-2016

 ----------------------------------------------------------------------
 # TD(NStates=10, Root=1) B3LYP/6-31G* scf=qc volume pop=NPA density=cu
 rrent Geom=AllCheck Guess=Read
 ----------------------------------------------------------------------

 Structure from the checkpoint file:  "phosphine_2_conf63.chk"
 -------------------
 Title Card Required
 -------------------
 Charge =  0 Multiplicity = 1

                         Standard orientation:
 ---------------------------------------------------------------------
 Center     Atomic      Atomic             Coordinates (Angstroms)
 Number     Number       Type             X           Y           Z
 ---------------------------------------------------------------------
      1          6           0       -4.707950    0.080567    0.400627
      2          6           0       -3.890148   -1.177281    0.085524
      3          6           0       -2.393434   -1.067422    0.428293
      4          6           0       -1.629485   -0.028138   -0.407598
      5          1           0       -1.765509   -0.228581   -1.481406
      6          1           0       -2.037550    0.973082   -0.220525
      7         15           0        0.202628    0.056633    0.001231
      8          6           0        0.801415   -1.397695   -1.034341
      9          1           0        0.228698   -2.276829   -0.713866
     10          1           0        0.534048   -1.222071   -2.086450
     11          6           0        2.310169   -1.691561   -0.928302
     12          6           0        2.807581   -2.141432    0.456711
     13          6           0        2.231429   -3.480854    0.930241
     14          6           0        0.696955    1.453670   -1.161311
     15          1           0        1.776387    1.361946   -1.343239
     16          1           0        0.207779    1.277458   -2.129858
     17          6           0        0.381322    2.885967   -0.672462
     18          6           0        1.470559    3.559042    0.181674
     19          6           0        1.692728    2.959685    1.574580
     20          1           0       -5.771105   -0.078040    0.186582
     21          1           0       -4.379846    0.941605   -0.192547
     22          1           0       -4.618945    0.353618    1.459682
     23          1           0       -3.999632   -1.428235   -0.979345
     24          1           0       -4.312305   -2.024927    0.642357
     25          1           0       -1.934315   -2.056014    0.290344
     26          1           0       -2.281094   -0.827261    1.494704
     27          1           0        2.876160   -0.801163   -1.235401
     28          1           0        2.561560   -2.470921   -1.662951
     29          1           0        2.579880   -1.365053    1.198158
     30          1           0        3.902582   -2.218994    0.417495
     31          1           0        1.147381   -3.429399    1.082407
     32          1           0        2.678724   -3.784283    1.883663
     33          1           0        2.428482   -4.277863    0.201653
     34          1           0       -0.570999    2.901830   -0.122512
     35          1           0        0.218931    3.514862   -1.558355
     36          1           0        1.205809    4.619742    0.292533
     37          1           0        2.416702    3.542905   -0.379044
     38          1           0        0.766935    2.974409    2.162718
     39          1           0        2.448033    3.532507    2.126012
     40          1           0        2.026936    1.918878    1.526921
 ---------------------------------------------------------------------

 SCF Done:  E(RB3LYP) =  -814.907117072     a.u. after    1 cycles

 Excitation energies and oscillator strengths:

 Excited State   1:      Singlet-A      6.4424 eV  192.45 nm  f=0.1207  <S**2>=0.000
      57 -> 58         0.69734
 This state for optimization and/or second-order correction.
 Total Energy, E(TD-HF/TD-DFT) =  -814.670364123
 Copying the excited state density for this state as the 1-particle RhoCI density.

 Excited State   2:      Singlet-A      6.6148 eV  187.43 nm  f=0.1345  <S**2>=0.000
      57 -> 59         0.69491

 Excited State   3:      Singlet-A      7.1444 eV  173.54 nm  f=0.0048  <S**2>=0.000
      57 -> 60         0.70125

 Excited State   4:      Singlet-A      7.5804 eV  163.56 nm  f=0.0111  <S**2>=0.000
      57 -> 61         0.67059
      57 -> 62        -0.16039

 Excited State   5:      Singlet-A      7.7275 eV  160.44 nm  f=0.0076  <S**2>=0.000
      57 -> 61         0.12034
      57 -> 62         0.65312
      57 -> 63         0.17692
      57 -> 65        -0.10594

 Excited State   6:      Singlet-A      7.8181 eV  158.59 nm  f=0.0108  <S**2>=0.000
      57 -> 61        -0.13143
      57 -> 62        -0.15444
      57 -> 63         0.66302

 Excited State   7:      Singlet-A      8.1094 eV  152.89 nm  f=0.0786  <S**2>=0.000
      57 -> 64         0.69154

 Excited State   8:      Singlet-A      8.1783 eV  151.60 nm  f=0.0105  <S**2>=0.000
      55 -> 58        -0.20020
      55 -> 59        -0.22655
      56 -> 58         0.59776
      56 -> 59        -0.16556

 Excited State   9:      Singlet-A      8.2409 eV  150.45 nm  f=0.0140  <S**2>=0.000
      57 -> 65         0.68101

 Excited State  10:      Singlet-A      8.4443 eV  146.83 nm  f=0.0939  <S**2>=0.000
      55 -> 58         0.55968
      55 -> 59         0.23064
      56 -> 58         0.21511
      56 -> 59        -0.22243

 The electronic state is 1-A.
 Alpha  occ. eigenvalues --  -77.06269 -10.18114 -10.18052 -10.18046 -10.18006
 Alpha  occ. eigenvalues --  -10.17966 -10.17958 -10.17912 -10.17625 -10.17405
 Alpha  occ. eigenvalues --  -10.17159 -10.16862 -10.16305  -6.53039  -4.69289
 Alpha  occ. eigenvalues --   -4.69288  -4.68797  -0.79843  -0.78772  -0.78538
 Alpha  occ. eigenvalues --   -0.73900  -0.71203  -0.71056  -0.65892  -0.63246
 Alpha  occ. eigenvalues --   -0.63052  -0.57538  -0.56450  -0.56092  -0.51450
 Alpha  occ. eigenvalues --   -0.45836  -0.45695  -0.45288  -0.44811  -0.44072
 Alpha  occ. eigenvalues --   -0.43125  -0.41628  -0.41379  -0.39236  -0.38979
 Alpha  occ. eigenvalues --   -0.38787  -0.38198  -0.37853  -0.36287  -0.36054
 Alpha  occ. eigenvalues --   -0.35115  -0.34140  -0.32996  -0.32735  -0.32230
 Alpha  occ. eigenvalues --   -0.32121  -0.32034  -0.31969  -0.31662  -0.28910
 Alpha  occ. eigenvalues --   -0.28572  -0.21265
 Alpha virt. eigenvalues --    0.05259   0.05832   0.08023   0.09785   0.10228
 Alpha virt. eigenvalues --    0.10663   0.11426   0.11899   0.13325   0.13727
 Alpha virt. eigenvalues --    0.14407   0.14900   0.15165   0.15721   0.16236

 Mulliken charges:
               1
     1  C   -0.432225
     2  C   -0.237245
     3  C   -0.241114
     4  C   -0.417299
     5  H    0.142129
     6  H    0.138964
     7  P    0.341780
     8  C   -0.434295
     9  H    0.172422
    10  H    0.173936
    11  C   -0.218937
    12  C   -0.225853
    13  C   -0.446977
    14  C   -0.409250
    15  H    0.175859
    16  H    0.169675
    17  C   -0.260375
    18  C   -0.246580
    19  C   -0.445070
    20  H    0.134713
    21  H    0.130510
    22  H    0.136559
    23  H    0.121913
    24  H    0.121539
    25  H    0.119924
    26  H    0.118480
    27  H    0.105277
    28  H    0.105949
    29  H    0.114439
    30  H    0.124932
    31  H    0.138131
    32  H    0.139731
    33  H    0.138537
    34  H    0.135371
    35  H    0.131459
    36  H    0.134172
    37  H    0.130936
    38  H    0.140503
    39  H    0.142007
    40  H    0.135377
 Sum of Mulliken charges =  -0.00000

 Dipole moment (field-independent basis, Debye):
    X=             -0.1584    Y=              0.3597    Z=             -1.6237  Tot=              1.6706
 Quadrupole moment (field-independent basis, Debye-Ang):
   XX=           -101.4598   YY=            -94.8174   ZZ=            -93.8923
   XY=              1.1017   XZ=             -0.6919   YZ=             -0.5981

 Summary of Natural Population Analysis:

                                       Natural Population
                Natural  -----------------------------------------------
    Atom  No    Charge         Core      Valence    Rydberg      Total
 -----------------------------------------------------------------------
      C    1   -0.67842      1.99946     4.67107    0.00788     6.67842
      C    2   -0.45123      1.99935     4.44074    0.01114     6.45123
      C    3   -0.46119      1.99933     4.44978    0.01208     6.46119
      C    4   -0.86676      1.99931     4.83957    0.02787     6.86676
      H    5    0.24270      0.00000     0.75347    0.00383     0.75730
      H    6    0.23531      0.00000     0.75770    0.00698     0.76469
      P    7    1.00893      9.99761     3.87658    0.11688    13.99107
      C    8   -0.77881      1.99930     4.75907    0.02045     6.77881
      H    9    0.24932      0.00000     0.74851    0.00217     0.75068
      H   10    0.26707      0.00000     0.73027    0.00266     0.73293
      C   11   -0.46397      1.99932     4.44988    0.01477     6.46397
      C   12   -0.46070      1.99934     4.44922    0.01213     6.46070
      C   13   -0.67974      1.99946     4.67183    0.00845     6.67974
      C   14   -0.76814      1.99929     4.75320    0.01565     6.76814
      H   15    0.26054      0.00000     0.73398    0.00548     0.73946
      H   16    0.26400      0.00000     0.73218    0.00381     0.73600
      C   17   -0.46125      1.99931     4.44850    0.01344     6.46125
      C   18   -0.45482      1.99935     4.44380    0.01167     6.45482
      C   19   -0.68483      1.99945     4.67655    0.00884     6.68483
      H   20    0.22728      0.00000     0.77069    0.00202     0.77272
      H   21    0.21549      0.00000     0.77980    0.00471     0.78451
      H   22    0.22126      0.00000     0.77607    0.00267     0.77874
      H   23    0.22228      0.00000     0.77414    0.00358     0.77772
      H   24    0.22558      0.00000     0.77045    0.00397     0.77442
      H   25    0.22120      0.00000     0.77579    0.00301     0.77880
      H   26    0.21720      0.00000     0.77506    0.00774     0.78280
      H   27    0.21536      0.00000     0.77367    0.01097     0.78464
      H   28    0.21988      0.00000     0.77194    0.00818     0.78012
      H   29    0.21184      0.00000     0.77620    0.01196     0.78816
      H   30    0.23038      0.00000     0.76673    0.00289     0.76962
      H   31    0.21812      0.00000     0.78088    0.00100     0.78188
      H   32    0.22989      0.00000     0.76838    0.00172     0.77011
      H   33    0.22303      0.00000     0.77543    0.00154     0.77697
      H   34    0.22308      0.00000     0.77130    0.00561     0.77692
      H   35    0.23681      0.00000     0.76005    0.00314     0.76319
      H   36    0.23455      0.00000     0.76407    0.00138     0.76545
      H   37    0.22505      0.00000     0.77300    0.00195     0.77495
      H   38    0.22267      0.00000     0.77582    0.00151     0.77733
      H   39    0.23421      0.00000     0.76499    0.00080     0.76579
      H   40    0.20683      0.00000     0.78189    0.01128     0.79317
 =======================================================================
   * Total *    0.00000     33.98988    79.61228    0.39784   114.00000

 Normal termination of Gaussian 16 at Sun Aug 23 10:57:18 2020.
