 Gaussian 16, Revision A.03,

 ---------------------------------
 # opt=CalcAll B3LYP/6-31G* scf=qc
 ---------------------------------

 -------------------
 Title Card Required
 -------------------
 Symbolic Z-matrix:
 Charge =  0 Multiplicity = 1

 SCF Done:  E(RB3LYP) =  -2415.06922716     a.u. after    8 cycles
 SCF Done:  E(RB3LYP) =  -2415.08315398     a.u. after   15 cycles
 SCF Done:  E(RB3LYP) =  -2415.08507024     a.u. after   15 cycles
 SCF Done:  E(RB3LYP) =  -2415.08573108     a.u. after   15 cycles
 SCF Done:  E(RB3LYP) =  -2415.08603839     a.u. after   15 cycles
 SCF Done:  E(RB3LYP) =  -2415.08618943     a.u. after   15 cycles
 SCF Done:  E(RB3LYP) =  -2415.08619094     a.u. after    9 cycles
 SCF Done:  E(RB3LYP) =  -2415.08619628     a.u. after    2 cycles
 SCF Done:  E(RB3LYP) =  -2415.08622460     a.u. after   11 cycles
 SCF Done:  E(RB3LYP) =  -2415.08624329     a.u. after   11 cycles
 SCF Done:  E(RB3LYP) =  -2415.08624109     a.u. after    5 cycles
 SCF Done:  E(RB3LYP) =  -2415.08623945     a.u. after    5 cycles
 SCF Done:  E(RB3LYP) =  -2415.08623933     a.u. after    4 cycles
 SCF Done:  E(RB3LYP) =  -2415.08624910     a.u. after    3 cycles
 SCF Done:  E(RB3LYP) =  -2415.08623999     a.u. after    3 cycles
 SCF Done:  E(RB3LYP) =  -2415.08624319     a.u. after    4 cycles
 SCF Done:  E(RB3LYP) =  -2415.08624837     a.u. after    2 cycles
 SCF Done:  E(RB3LYP) =  -2415.08624584     a.u. after    2 cycles
 Optimization completed.
    -- Stationary point found.
 Normal termination of Gaussian 16 at Sun Aug 23 06:23:25 2020.

 ----------------------------------------------------------------------
 # freq B3LYP/6-31G* scf=qc volume NMR pop=NPA density=current Geom=All
 Check Guess=Read
 ----------------------------------------------------------------------

 Structure from the checkpoint file:  "phosphine_11_conf252.chk"
 -------------------
 Title Card Required
 -------------------
 Charge =  0 Multiplicity = 1

 SCF Done:  E(RB3LYP) =  -2415.08624584     a.u. after    1 cycles

      1  C    Isotropic =    67.5354   Anisotropy =   140.0934

      2  C    Isotropic =    61.8895   Anisotropy =   168.6020

      3  C    Isotropic =    58.7404   Anisotropy =   177.4232

      4  C    Isotropic =    60.2178   Anisotropy =   160.2699

      5  C    Isotropic =    67.5631   Anisotropy =   140.6115

      6  C    Isotropic =    51.5961   Anisotropy =   109.1518

      7  Cl   Isotropic =   720.9815   Anisotropy =   452.9252

      8  P    Isotropic =   364.8463   Anisotropy =    37.4338

      9  C    Isotropic =    58.7368   Anisotropy =   177.4364

     10  C    Isotropic =    61.8955   Anisotropy =   168.6133

     11  C    Isotropic =    67.5417   Anisotropy =   140.1145

     12  C    Isotropic =    51.6035   Anisotropy =   109.1452

     13  C    Isotropic =    67.5557   Anisotropy =   140.5680

     14  C    Isotropic =    60.2284   Anisotropy =   160.2749

     15  Cl   Isotropic =   720.9477   Anisotropy =   452.9581

     16  C    Isotropic =    58.7405   Anisotropy =   177.4199

     17  C    Isotropic =    60.2202   Anisotropy =   160.2851

     18  C    Isotropic =    67.5487   Anisotropy =   140.5832

     19  C    Isotropic =    51.6035   Anisotropy =   109.1389

     20  C    Isotropic =    67.5386   Anisotropy =   140.1100

     21  C    Isotropic =    61.8857   Anisotropy =   168.6003

     22  Cl   Isotropic =   721.0161   Anisotropy =   452.8412

     23  H    Isotropic =    25.2103   Anisotropy =     8.1397

     24  H    Isotropic =    25.5839   Anisotropy =    12.1087

     25  H    Isotropic =    24.7790   Anisotropy =     8.9672

     26  H    Isotropic =    25.0904   Anisotropy =     6.6363

     27  H    Isotropic =    25.5823   Anisotropy =    12.1138

     28  H    Isotropic =    25.2079   Anisotropy =     8.1434

     29  H    Isotropic =    25.0951   Anisotropy =     6.6294

     30  H    Isotropic =    24.7798   Anisotropy =     8.9678

     31  H    Isotropic =    24.7787   Anisotropy =     8.9713

     32  H    Isotropic =    25.0916   Anisotropy =     6.6345

     33  H    Isotropic =    25.2086   Anisotropy =     8.1419

     34  H    Isotropic =    25.5823   Anisotropy =    12.1173

  Exact polarizability: 280.585   0.012 280.583   0.004  -0.014 185.142
 Approx polarizability: 393.383   0.028 393.404   0.008  -0.030 343.223

                      1                      2                      3
                      A                      A                      A
 Frequencies --     22.5565                23.3737                29.6046
 Red. masses --      4.8210                 5.0899                 8.3650
 Frc consts  --      0.0014                 0.0016                 0.0043
 IR Inten    --      0.2685                 0.2499                 0.1931

                      4                      5                      6
                      A                      A                      A
 Frequencies --     29.8650                38.3478                40.4199
 Red. masses --      7.7315                 8.1140                 4.5644
 Frc consts  --      0.0041                 0.0070                 0.0044
 IR Inten    --      0.2184                 0.1943                 0.0328

                      7                      8                      9
                      A                      A                      A
 Frequencies --    109.3756               117.6587               117.7953
 Red. masses --      8.8637                 8.8306                 8.8345
 Frc consts  --      0.0625                 0.0720                 0.0722
 IR Inten    --      0.0248                 0.3514                 0.3486

                     10                     11                     12
                      A                      A                      A
 Frequencies --    181.0343               187.4215               187.5494
 Red. masses --     10.0369                 8.7858                 8.7937
 Frc consts  --      0.1938                 0.1818                 0.1822
 IR Inten    --      0.3332                 0.5701                 0.5720

                     13                     14                     15
                      A                      A                      A
 Frequencies --    264.0225               293.6617               293.7190
 Red. masses --      8.9775                 8.4053                 8.4120
 Frc consts  --      0.3687                 0.4271                 0.4276
 IR Inten    --      0.2158                 0.9096                 0.9074

                     16                     17                     18
                      A                      A                      A
 Frequencies --    310.8967               328.7535               328.8270
 Red. masses --      6.0413                 5.9835                 5.9796
 Frc consts  --      0.3440                 0.3810                 0.3809
 IR Inten    --      0.0034                 1.8821                 1.8776

                     19                     20                     21
                      A                      A                      A
 Frequencies --    384.0192               384.0448               414.6835
 Red. masses --      8.0302                 8.0302                 3.0450
 Frc consts  --      0.6977                 0.6978                 0.3085
 IR Inten    --     20.9905                20.9882                 0.0546

                     22                     23                     24
                      A                      A                      A
 Frequencies --    414.7784               416.7503               426.9775
 Red. masses --      3.0457                 3.2145                 6.6033
 Frc consts  --      0.3087                 0.3289                 0.7093
 IR Inten    --      0.0507                 0.1657                 2.9376

                     25                     26                     27
                      A                      A                      A
 Frequencies --    499.5745               509.4168               509.5238
 Red. masses --      5.5217                 3.6458                 3.6495
 Frc consts  --      0.8119                 0.5574                 0.5582
 IR Inten    --      6.8275                19.8886                19.8749

                     28                     29                     30
                      A                      A                      A
 Frequencies --    531.7062               548.8232               548.8663
 Red. masses --      4.5709                 7.4319                 7.4302
 Frc consts  --      0.7614                 1.3189                 1.3188
 IR Inten    --      9.8727                 5.4596                 5.4604

                     31                     32                     33
                      A                      A                      A
 Frequencies --    644.3290               644.3623               645.2875
 Red. masses --      7.1596                 7.1598                 7.1683
 Frc consts  --      1.7513                 1.7515                 1.7586
 IR Inten    --      0.0374                 0.0370                 0.0963

                     34                     35                     36
                      A                      A                      A
 Frequencies --    718.2511               718.3270               718.7634
 Red. masses --      4.5878                 4.5906                 4.6080
 Frc consts  --      1.3945                 1.3956                 1.4026
 IR Inten    --      1.6707                 1.6756                 0.2959

                     37                     38                     39
                      A                      A                      A
 Frequencies --    746.1086               751.6438               751.6502
 Red. masses --      7.2607                 7.2731                 7.2762
 Frc consts  --      2.3814                 2.4210                 2.4221
 IR Inten    --     14.6290                54.3635                54.3367

                     40                     41                     42
                      A                      A                      A
 Frequencies --    833.7703               834.1999               834.3005
 Red. masses --      1.4164                 1.4318                 1.4316
 Frc consts  --      0.5801                 0.5870                 0.5871
 IR Inten    --     23.3945                32.8145                32.9149

                     43                     44                     45
                      A                      A                      A
 Frequencies --    845.8957               846.0057               849.0829
 Red. masses --      1.2466                 1.2466                 1.2502
 Frc consts  --      0.5255                 0.5257                 0.5310
 IR Inten    --      0.6146                 0.6586                 0.3233

                     46                     47                     48
                      A                      A                      A
 Frequencies --    969.5823               969.6866               970.0536
 Red. masses --      1.2758                 1.2768                 1.2883
 Frc consts  --      0.7067                 0.7073                 0.7143
 IR Inten    --      0.1506                 0.1482                 0.2097

                     49                     50                     51
                      A                      A                      A
 Frequencies --    973.3571               973.5428               976.8604
 Red. masses --      1.3459                 1.3443                 1.3212
 Frc consts  --      0.7513                 0.7507                 0.7428
 IR Inten    --      0.0098                 0.0127                 0.4166

                     52                     53                     54
                      A                      A                      A
 Frequencies --   1027.9620              1027.9795              1029.6253
 Red. masses --      4.7594                 4.7637                 4.7010
 Frc consts  --      2.9632                 2.9659                 2.9363
 IR Inten    --     62.7236                62.6868                 5.1176

                     55                     56                     57
                      A                      A                      A
 Frequencies --   1097.7547              1097.7776              1101.4975
 Red. masses --      7.9102                 7.9228                 8.0765
 Frc consts  --      5.6162                 5.6255                 5.7735
 IR Inten    --     81.1027                81.3945                13.6448

                     58                     59                     60
                      A                      A                      A
 Frequencies --   1118.2480              1118.3559              1121.1924
 Red. masses --      2.1226                 2.1223                 2.1023
 Frc consts  --      1.5638                 1.5640                 1.5570
 IR Inten    --     33.0693                32.8251                 6.3794

                     61                     62                     63
                      A                      A                      A
 Frequencies --   1139.3296              1139.4716              1139.5656
 Red. masses --      1.4012                 1.4018                 1.4028
 Frc consts  --      1.0716                 1.0724                 1.0733
 IR Inten    --      0.3476                 1.1181                 2.6630

                     64                     65                     66
                      A                      A                      A
 Frequencies --   1219.1730              1219.4563              1220.8667
 Red. masses --      1.1570                 1.1573                 1.1517
 Frc consts  --      1.0132                 1.0140                 1.0114
 IR Inten    --      4.8185                 4.8211                 0.9038

                     67                     68                     69
                      A                      A                      A
 Frequencies --   1318.3201              1322.2954              1322.2971
 Red. masses --      6.9284                 7.6185                 7.6952
 Frc consts  --      7.0946                 7.8483                 7.9274
 IR Inten    --      1.3154                 2.6712                 2.6625

                     70                     71                     72
                      A                      A                      A
 Frequencies --   1337.3273              1337.5563              1337.8059
 Red. masses --      1.3345                 1.3349                 1.3472
 Frc consts  --      1.4062                 1.4070                 1.4206
 IR Inten    --      0.4000                 0.5866                 1.2966

                     73                     74                     75
                      A                      A                      A
 Frequencies --   1429.5791              1430.0042              1430.0446
 Red. masses --      2.6340                 2.6430                 2.6393
 Frc consts  --      3.1717                 3.1844                 3.1801
 IR Inten    --     19.6923                 6.1431                 6.0895

                     76                     77                     78
                      A                      A                      A
 Frequencies --   1527.1185              1527.1533              1527.2391
 Red. masses --      2.0813                 2.0883                 2.0776
 Frc consts  --      2.8597                 2.8696                 2.8551
 IR Inten    --     53.3881                31.5889                57.0947

                     79                     80                     81
                      A                      A                      A
 Frequencies --   1611.0398              1611.2745              1611.3156
 Red. masses --      6.6422                 6.6641                 6.6564
 Frc consts  --     10.1572                10.1937                10.1824
 IR Inten    --      3.8577                 3.8331                 3.8100

                     82                     83                     84
                      A                      A                      A
 Frequencies --   1633.4391              1633.4715              1634.5070
 Red. masses --      5.4293                 5.4240                 5.4914
 Frc consts  --      8.5350                 8.5270                 8.6439
 IR Inten    --     29.7567                29.6764                13.1197

                     85                     86                     87
                      A                      A                      A
 Frequencies --   3188.0400              3188.1451              3188.1789
 Red. masses --      1.0892                 1.0892                 1.0892
 Frc consts  --      6.5226                 6.5230                 6.5228
 IR Inten    --      5.4448                 4.8036                 2.4388

                     88                     89                     90
                      A                      A                      A
 Frequencies --   3205.6205              3205.6966              3206.2719
 Red. masses --      1.0879                 1.0879                 1.0879
 Frc consts  --      6.5864                 6.5867                 6.5894
 IR Inten    --      0.8560                 0.8654                 0.6689

                     91                     92                     93
                      A                      A                      A
 Frequencies --   3222.5845              3222.6299              3222.7573
 Red. masses --      1.0938                 1.0938                 1.0937
 Frc consts  --      6.6924                 6.6925                 6.6926
 IR Inten    --      2.3972                 2.5032                 9.6590

                     94                     95                     96
                      A                      A                      A
 Frequencies --   3223.6726              3223.7053              3223.9368
 Red. masses --      1.0939                 1.0939                 1.0941
 Frc consts  --      6.6977                 6.6979                 6.7001
 IR Inten    --      5.7116                 5.6557                 0.0508

 - Thermochemistry -
 -------------------
 Temperature   298.150 Kelvin.  Pressure   1.00000 Atm.
 Atom     1 has atomic number  6 and mass  12.00000

 Molecular mass:   363.97422 amu.
 Principal axes and moments of inertia in atomic units:
                           1         2         3
     Eigenvalues --  ******************************
           X            0.99962   0.02751   0.00000
           Y           -0.02751   0.99962  -0.00000
           Z           -0.00000   0.00000   1.00000
 This molecule is an asymmetric top.
 Rotational symmetry number  1.
 Warning -- assumption of classical behavior for rotation
           may cause significant error
 Rotational temperatures (Kelvin)      0.00723     0.00723     0.00405
 Rotational constants (GHZ):           0.15062     0.15061     0.08440
 Zero-point vibrational energy     643772.7 (Joules/Mol)
                                  153.86537 (Kcal/Mol)
 Warning -- explicit consideration of  30 degrees of freedom as
           vibrations may cause significant error
 Vibrational temperatures:     32.45    33.63    42.59    42.97    55.17
          (Kelvin)             58.16   157.37   169.28   169.48   260.47
                              269.66   269.84   379.87   422.51   422.60
                              447.31   473.00   473.11   552.52   552.55
                              596.64   596.77   599.61   614.33   718.78
                              732.94   733.09   765.01   789.63   789.70
                              927.05   927.09   928.42  1033.40  1033.51
                             1034.14  1073.48  1081.45  1081.46  1199.61
                             1200.23  1200.37  1217.06  1217.21  1221.64
                             1395.01  1395.16  1395.69  1400.44  1400.71
                             1405.48  1479.01  1479.03  1481.40  1579.42
                             1579.46  1584.81  1608.91  1609.06  1613.15
                             1639.24  1639.45  1639.58  1754.12  1754.53
                             1756.55  1896.77  1902.49  1902.49  1924.12
                             1924.45  1924.80  2056.85  2057.46  2057.52
                             2197.18  2197.23  2197.36  2317.93  2318.26
                             2318.32  2350.15  2350.20  2351.69  4586.88
                             4587.03  4587.08  4612.17  4612.28  4613.11
                             4636.58  4636.65  4636.83  4638.15  4638.19
                             4638.53

 Zero-point correction=                           0.245200 (Hartree/Particle)
 Thermal correction to Energy=                    0.264846
 Thermal correction to Enthalpy=                  0.265790
 Thermal correction to Gibbs Free Energy=         0.192347
 Sum of electronic and zero-point Energies=          -2414.841046
 Sum of electronic and thermal Energies=             -2414.821400
 Sum of electronic and thermal Enthalpies=           -2414.820455
 Sum of electronic and thermal Free Energies=        -2414.893899

                     E (Thermal)             CV                S
                      KCal/Mol        Cal/Mol-Kelvin    Cal/Mol-Kelvin
 Total                  166.193             74.120            154.574
 Electronic               0.000              0.000              0.000
 Translational            0.889              2.981             43.569
 Rotational               0.889              2.981             36.372
 Vibrational            164.416             68.159             74.634
 Vibration     1          0.593              1.985              6.395
 Vibration     2          0.593              1.985              6.325
 Vibration     3          0.593              1.984              5.856
 Vibration     4          0.594              1.984              5.838
 Vibration     5          0.594              1.982              5.343
 Vibration     6          0.594              1.981              5.238
 Vibration     7          0.606              1.942              3.280
 Vibration     8          0.608              1.935              3.138
 Vibration     9          0.608              1.935              3.136
 Vibration    10          0.630              1.865              2.318
 Vibration    11          0.632              1.857              2.253
 Vibration    12          0.632              1.857              2.252
 Vibration    13          0.671              1.739              1.635
 Vibration    14          0.688              1.686              1.453
 Vibration    15          0.689              1.685              1.452
 Vibration    16          0.700              1.653              1.358
 Vibration    17          0.712              1.618              1.266
 Vibration    18          0.712              1.618              1.266
 Vibration    19          0.753              1.504              1.023
 Vibration    20          0.753              1.504              1.023
 Vibration    21          0.778              1.438              0.910
 Vibration    22          0.778              1.438              0.910
 Vibration    23          0.780              1.434              0.903
 Vibration    24          0.789              1.412              0.869
 Vibration    25          0.855              1.251              0.659
 Vibration    26          0.865              1.229              0.635
 Vibration    27          0.865              1.229              0.635
 Vibration    28          0.887              1.180              0.583
 Vibration    29          0.904              1.142              0.547
 Vibration    30          0.904              1.142              0.547

                           ! Non-Optimized Parameters !
 Normal termination of Gaussian 16 at Sun Aug 23 06:40:37 2020.
 Gaussian 16:  ES64L-G16RevA.03 25-Dec-2016

 ----------------------------------------------------------------------
 # TD(NStates=10, Root=1) B3LYP/6-31G* scf=qc volume pop=NPA density=cu
 rrent Geom=AllCheck Guess=Read
 ----------------------------------------------------------------------

 Structure from the checkpoint file:  "phosphine_11_conf253.chk"
 -------------------
 Title Card Required
 -------------------
 Charge =  0 Multiplicity = 1

                         Standard orientation:
 ---------------------------------------------------------------------
 Center     Atomic      Atomic             Coordinates (Angstroms)
 Number     Number       Type             X           Y           Z
 ---------------------------------------------------------------------
      1          6           0       -1.010136   -3.202542   -0.946307
      2          6           0       -0.350437   -2.091100   -0.419666
      3          6           0       -0.814062   -1.456847    0.742593
      4          6           0       -1.957426   -1.975763    1.372851
      5          6           0       -2.634668   -3.077482    0.853350
      6          6           0       -2.150870   -3.683565   -0.305852
      7         17           0       -2.987742   -5.081880   -0.963948
      8         15           0        0.000089    0.000006    1.547616
      9          6           0        1.668816    0.023402    0.742561
     10          6           0        1.986516    0.742790   -0.419168
     11          6           0        3.278916    0.727237   -0.945784
     12          6           0        4.265650   -0.020872   -0.305855
     13          6           0        3.982435   -0.743671    0.852811
     14          6           0        2.689696   -0.708055    1.372305
     15         17           0        5.895063   -0.046400   -0.963933
     16          6           0       -0.854616    1.433479    0.742693
     17          6           0       -0.731584    2.683349    1.372365
     18          6           0       -1.347185    3.820656    0.852848
     19          6           0       -2.114843    3.704432   -0.305752
     20          6           0       -2.269382    2.475796   -0.945592
     21          6           0       -1.636574    1.348825   -0.418962
     22         17           0       -2.907502    5.128250   -0.963888
     23          1           0       -0.644060   -3.689455   -1.844205
     24          1           0        0.537960   -1.721984   -0.922840
     25          1           0       -2.324120   -1.516234    2.287575
     26          1           0       -3.518869   -3.469027    1.345090
     27          1           0        1.222848    1.328177   -0.921960
     28          1           0        3.517717    1.288320   -1.843268
     29          1           0        4.763453   -1.314216    1.344155
     30          1           0        2.474941   -1.256026    2.286614
     31          1           0       -0.149572    2.771403    2.286619
     32          1           0       -1.243568    4.782343    1.344123
     33          1           0       -2.874762    2.401996   -1.843025
     34          1           0       -1.761714    0.394736   -0.921686
 ---------------------------------------------------------------------

 SCF Done:  E(RB3LYP) =  -2415.08624584     a.u. after    1 cycles

 Excitation energies and oscillator strengths:

 Excited State   1:      Singlet-A      4.4060 eV  281.40 nm  f=0.1834  <S**2>=0.000
      93 -> 94         0.69564
 This state for optimization and/or second-order correction.
 Total Energy, E(TD-HF/TD-DFT) =  -2414.92432749
 Copying the excited state density for this state as the 1-particle RhoCI density.

 Excited State   2:      Singlet-A      4.4063 eV  281.38 nm  f=0.1836  <S**2>=0.000
      93 -> 95         0.69564

 Excited State   3:      Singlet-A      4.6118 eV  268.84 nm  f=0.0036  <S**2>=0.000
      89 -> 94        -0.10922
      90 -> 95        -0.10928
      93 -> 96         0.67972

 Excited State   4:      Singlet-A      4.9176 eV  252.12 nm  f=0.0001  <S**2>=0.000
      88 -> 94         0.11058
      89 -> 94         0.11262
      90 -> 95        -0.11276
      93 -> 98         0.64452

 Excited State   5:      Singlet-A      4.9178 eV  252.11 nm  f=0.0001  <S**2>=0.000
      88 -> 95         0.11052
      89 -> 95        -0.11289
      90 -> 94        -0.11279
      93 -> 99         0.64444

 Excited State   6:      Singlet-A      5.0221 eV  246.88 nm  f=0.0090  <S**2>=0.000
      91 -> 94        -0.12449
      92 -> 95        -0.12458
      93 -> 97         0.66881

 Excited State   7:      Singlet-A      5.2596 eV  235.73 nm  f=0.0017  <S**2>=0.000
      89 -> 94         0.13057
      90 -> 95         0.13013
      91 -> 94         0.19921
      91 -> 95        -0.39695
      91 -> 98         0.13108
      92 -> 94         0.39770
      92 -> 95         0.19911
      92 -> 99         0.13077
      93 -> 96         0.10392

 Excited State   8:      Singlet-A      5.3615 eV  231.25 nm  f=0.0050  <S**2>=0.000
      88 -> 94        -0.19078
      89 -> 94        -0.19141
      89 -> 97        -0.11106
      90 -> 95         0.19137
      91 -> 94        -0.13532
      91 -> 96         0.40723
      91 -> 98        -0.13435
      92 -> 95         0.13549
      92 -> 96        -0.17320
      92 -> 99         0.13429
      93 -> 98         0.22315

 Excited State   9:      Singlet-A      5.3616 eV  231.24 nm  f=0.0049  <S**2>=0.000
      88 -> 95        -0.19040
      89 -> 95         0.19143
      90 -> 94         0.19140
      90 -> 97        -0.11106
      91 -> 95         0.13561
      91 -> 96         0.17292
      91 -> 99         0.13414
      92 -> 94         0.13543
      92 -> 96         0.40764
      92 -> 98         0.13446
      93 -> 99         0.22334

 Excited State  10:      Singlet-A      5.4215 eV  228.69 nm  f=0.1615  <S**2>=0.000
      91 -> 94         0.24840
      91 -> 95         0.39142
      92 -> 94         0.39191
      92 -> 95        -0.24898
      92 -> 96        -0.13979

 The electronic state is 1-A.
 Alpha  occ. eigenvalues -- -101.55493-101.55492-101.55492 -77.10094 -10.26329
 Alpha  occ. eigenvalues --  -10.26328 -10.26328 -10.21418 -10.21417 -10.21417
 Alpha  occ. eigenvalues --  -10.21367 -10.21367 -10.21367 -10.21346 -10.21345
 Alpha  occ. eigenvalues --  -10.21345 -10.21312 -10.21312 -10.21312 -10.21248
 Alpha  occ. eigenvalues --  -10.21247 -10.21247  -9.47124  -9.47124  -9.47124
 Alpha  occ. eigenvalues --   -7.23519  -7.23519  -7.23519  -7.22555  -7.22554
 Alpha  occ. eigenvalues --   -7.22554  -7.22517  -7.22517  -7.22517  -6.56809
 Alpha  occ. eigenvalues --   -4.73069  -4.73069  -4.72564  -0.89964  -0.89791
 Alpha  occ. eigenvalues --   -0.89790  -0.85153  -0.84236  -0.84236  -0.76898
 Alpha  occ. eigenvalues --   -0.76780  -0.76780  -0.76742  -0.73906  -0.73906
 Alpha  occ. eigenvalues --   -0.65058  -0.63150  -0.62986  -0.62986  -0.60496
 Alpha  occ. eigenvalues --   -0.60496  -0.57615  -0.52431  -0.52431  -0.49746
 Alpha  occ. eigenvalues --   -0.48088  -0.47998  -0.47998  -0.47167  -0.47167
 Alpha  occ. eigenvalues --   -0.46321  -0.44340  -0.44246  -0.44245  -0.42725
 Alpha  occ. eigenvalues --   -0.42724  -0.40319  -0.40238  -0.40237  -0.39581
 Alpha  occ. eigenvalues --   -0.37219  -0.37219  -0.37129  -0.35188  -0.35188
 Alpha  occ. eigenvalues --   -0.34135  -0.33460  -0.33459  -0.31867  -0.31862
 Alpha  occ. eigenvalues --   -0.31862  -0.27684  -0.27414  -0.27142  -0.27142
 Alpha  occ. eigenvalues --   -0.25829  -0.25828  -0.22677
 Alpha virt. eigenvalues --   -0.03957  -0.03956  -0.03033  -0.01964  -0.01786
 Alpha virt. eigenvalues --   -0.01785   0.02243   0.02243   0.02402   0.05592
 Alpha virt. eigenvalues --    0.05594   0.10344   0.12154   0.12345   0.12345

 Mulliken charges:
               1
     1  C   -0.117895
     2  C   -0.174900
     3  C   -0.130351
     4  C   -0.168703
     5  C   -0.124530
     6  C   -0.103812
     7  Cl  -0.049316
     8  P    0.446548
     9  C   -0.083475
    10  C   -0.158321
    11  C   -0.113261
    12  C   -0.071075
    13  C   -0.120993
    14  C   -0.151808
    15  Cl   0.003469
    16  C   -0.101952
    17  C   -0.168742
    18  C   -0.114130
    19  C   -0.076057
    20  C   -0.121201
    21  C   -0.150915
    22  Cl  -0.003393
    23  H    0.144951
    24  H    0.131153
    25  H    0.126786
    26  H    0.142174
    27  H    0.164330
    28  H    0.168141
    29  H    0.165793
    30  H    0.158179
    31  H    0.147820
    32  H    0.161180
    33  H    0.165952
    34  H    0.178355
 Sum of Mulliken charges =  -0.00000

 Dipole moment (field-independent basis, Debye):
    X=              2.5072    Y=              3.3489    Z=              1.9735  Tot=              4.6255
 Quadrupole moment (field-independent basis, Debye-Ang):
   XX=           -162.2291   YY=           -172.8789   ZZ=           -145.0366
   XY=             -7.1853   XZ=              0.1276   YZ=             -1.0168

 Summary of Natural Population Analysis:

                                       Natural Population
                Natural  -----------------------------------------------
    Atom  No    Charge         Core      Valence    Rydberg      Total
 -----------------------------------------------------------------------
      C    1   -0.24319      1.99893     4.22837    0.01588     6.24319
      C    2   -0.25269      1.99899     4.23592    0.01778     6.25269
      C    3   -0.48565      1.99886     4.46163    0.02516     6.48565
      C    4   -0.21810      1.99901     4.20297    0.01612     6.21810
      C    5   -0.26217      1.99894     4.24666    0.01657     6.26217
      C    6   -0.09794      1.99854     4.07720    0.02220     6.09794
     Cl    7   -0.02076      9.99968     7.00052    0.02056    17.02076
      P    8    1.21203      9.99758     3.74054    0.04985    13.78797
      C    9   -0.38909      1.99889     4.36617    0.02403     6.38909
      C   10   -0.21812      1.99899     4.20260    0.01653     6.21812
      C   11   -0.23492      1.99892     4.22085    0.01515     6.23492
      C   12   -0.03086      1.99855     4.01007    0.02225     6.03086
      C   13   -0.25535      1.99893     4.24049    0.01593     6.25535
      C   14   -0.18583      1.99901     4.17169    0.01512     6.18583
     Cl   15    0.01877      9.99967     6.96201    0.01955    16.98123
      C   16   -0.42026      1.99890     4.39535    0.02601     6.42026
      C   17   -0.21272      1.99902     4.19802    0.01568     6.21272
      C   18   -0.24282      1.99893     4.22850    0.01538     6.24282
      C   19   -0.04082      1.99855     4.01998    0.02230     6.04082
      C   20   -0.24902      1.99893     4.23437    0.01573     6.24902
      C   21   -0.19824      1.99899     4.18283    0.01642     6.19824
     Cl   22    0.01390      9.99967     6.96668    0.01975    16.98610
      H   23    0.24987      0.00000     0.74909    0.00104     0.75013
      H   24    0.23684      0.00000     0.76170    0.00145     0.76316
      H   25    0.23200      0.00000     0.76705    0.00095     0.76800
      H   26    0.24831      0.00000     0.75064    0.00105     0.75169
      H   27    0.25575      0.00000     0.74302    0.00123     0.74425
      H   28    0.26062      0.00000     0.73832    0.00105     0.73938
      H   29    0.25953      0.00000     0.73943    0.00104     0.74047
      H   30    0.24899      0.00000     0.74980    0.00120     0.75101
      H   31    0.24224      0.00000     0.75673    0.00104     0.75776
      H   32    0.25665      0.00000     0.74225    0.00109     0.74335
      H   33    0.25986      0.00000     0.73908    0.00106     0.74014
      H   34    0.26318      0.00000     0.73547    0.00136     0.73682
 =======================================================================
   * Total *   -0.00000     75.97648   109.56601    0.45751   186.00000

 Normal termination of Gaussian 16 at Sun Aug 23 07:01:45 2020.
