 Gaussian 16, Revision A.03,

 ---------------------------------
 # opt=CalcAll B3LYP/6-31G* scf=qc
 ---------------------------------

 -------------------
 Title Card Required
 -------------------
 Symbolic Z-matrix:
 Charge =  0 Multiplicity = 1

 SCF Done:  E(RB3LYP) =  -1333.97574659     a.u. after    7 cycles
 SCF Done:  E(RB3LYP) =  -1333.98101558     a.u. after   17 cycles
 SCF Done:  E(RB3LYP) =  -1333.99598920     a.u. after   17 cycles
 SCF Done:  E(RB3LYP) =  -1333.99847790     a.u. after   15 cycles
 SCF Done:  E(RB3LYP) =  -1333.99892618     a.u. after   13 cycles
 SCF Done:  E(RB3LYP) =  -1333.99897258     a.u. after   11 cycles
 SCF Done:  E(RB3LYP) =  -1333.99898060     a.u. after    5 cycles
 SCF Done:  E(RB3LYP) =  -1333.99897553     a.u. after    2 cycles
 SCF Done:  E(RB3LYP) =  -1333.99897579     a.u. after    4 cycles
 SCF Done:  E(RB3LYP) =  -1333.99897958     a.u. after    3 cycles
 SCF Done:  E(RB3LYP) =  -1333.99897299     a.u. after    3 cycles
 SCF Done:  E(RB3LYP) =  -1333.99897866     a.u. after    2 cycles
 SCF Done:  E(RB3LYP) =  -1333.99897819     a.u. after    5 cycles
 SCF Done:  E(RB3LYP) =  -1333.99897660     a.u. after    4 cycles
 SCF Done:  E(RB3LYP) =  -1333.99898255     a.u. after    3 cycles
 SCF Done:  E(RB3LYP) =  -1333.99897603     a.u. after    2 cycles
 SCF Done:  E(RB3LYP) =  -1333.99897636     a.u. after    3 cycles
 Optimization completed on the basis of negligible forces.
    -- Stationary point found.
 Normal termination of Gaussian 16 at Sun Aug 23 14:07:41 2020.

 ----------------------------------------------------------------------
 # freq B3LYP/6-31G* scf=qc volume NMR pop=NPA density=current Geom=All
 Check Guess=Read
 ----------------------------------------------------------------------

 Structure from the checkpoint file:  "phosphine_5_conf112.chk"
 -------------------
 Title Card Required
 -------------------
 Charge =  0 Multiplicity = 1

 SCF Done:  E(RB3LYP) =  -1333.99897636     a.u. after    1 cycles

      1  C    Isotropic =    79.9443   Anisotropy =   137.4508

      2  C    Isotropic =    59.0898   Anisotropy =   162.8195

      3  C    Isotropic =    61.5843   Anisotropy =   173.5333

      4  C    Isotropic =    60.7695   Anisotropy =   171.8422

      5  C    Isotropic =    80.0826   Anisotropy =   136.7456

      6  C    Isotropic =    32.6798   Anisotropy =    98.7880

      7  F    Isotropic =   295.8197   Anisotropy =   112.9188

      8  P    Isotropic =   366.1301   Anisotropy =    39.7303

      9  C    Isotropic =    61.5954   Anisotropy =   173.5242

     10  C    Isotropic =    60.6829   Anisotropy =   171.8858

     11  C    Isotropic =    80.0692   Anisotropy =   136.7158

     12  C    Isotropic =    32.6543   Anisotropy =    98.8380

     13  C    Isotropic =    79.9188   Anisotropy =   137.4254

     14  C    Isotropic =    59.0092   Anisotropy =   162.7458

     15  F    Isotropic =   295.7786   Anisotropy =   113.1030

     16  C    Isotropic =    61.6598   Anisotropy =   173.4802

     17  C    Isotropic =    59.0096   Anisotropy =   162.7740

     18  C    Isotropic =    79.9329   Anisotropy =   137.4238

     19  C    Isotropic =    32.6642   Anisotropy =    98.8313

     20  C    Isotropic =    80.0624   Anisotropy =   136.7303

     21  C    Isotropic =    60.6870   Anisotropy =   171.9403

     22  F    Isotropic =   295.7854   Anisotropy =   113.0753

     23  H    Isotropic =    25.3612   Anisotropy =     4.2557

     24  H    Isotropic =    24.6237   Anisotropy =     8.9326

     25  H    Isotropic =    25.3690   Anisotropy =    12.0383

     26  H    Isotropic =    25.4670   Anisotropy =     5.7396

     27  H    Isotropic =    25.3621   Anisotropy =    12.0032

     28  H    Isotropic =    25.4675   Anisotropy =     5.7331

     29  H    Isotropic =    25.3566   Anisotropy =     4.2615

     30  H    Isotropic =    24.6166   Anisotropy =     8.9151

     31  H    Isotropic =    24.6174   Anisotropy =     8.9149

     32  H    Isotropic =    25.3586   Anisotropy =     4.2554

     33  H    Isotropic =    25.4631   Anisotropy =     5.7384

     34  H    Isotropic =    25.3576   Anisotropy =    12.0171

  Exact polarizability: 226.301   0.137 225.972  -0.055  -0.161 167.781
 Approx polarizability: 338.038   0.305 337.423  -0.118  -0.365 314.991

                      1                      2                      3
                      A                      A                      A
 Frequencies --     23.4054                24.7920                37.4305
 Red. masses --      4.0686                 4.0884                 8.9429
 Frc consts  --      0.0013                 0.0015                 0.0074
 IR Inten    --      0.2481                 0.2566                 0.1020

                      4                      5                      6
                      A                      A                      A
 Frequencies --     37.5999                40.4732                50.6133
 Red. masses --      9.0303                 3.7432                 9.9517
 Frc consts  --      0.0075                 0.0036                 0.0150
 IR Inten    --      0.0921                 0.0056                 0.1145

                      7                      8                      9
                      A                      A                      A
 Frequencies --    133.0095               145.4902               145.8066
 Red. masses --      8.0543                 8.3698                 8.3758
 Frc consts  --      0.0840                 0.1044                 0.1049
 IR Inten    --      0.0235                 0.5208                 0.5142

                     10                     11                     12
                      A                      A                      A
 Frequencies --    209.0177               218.8610               219.5183
 Red. masses --      8.0486                 6.9852                 6.9952
 Frc consts  --      0.2072                 0.1971                 0.1986
 IR Inten    --      0.2901                 0.5291                 0.5285

                     13                     14                     15
                      A                      A                      A
 Frequencies --    307.9504               336.0062               336.1178
 Red. masses --      8.4309                 8.3165                 8.3041
 Frc consts  --      0.4711                 0.5532                 0.5527
 IR Inten    --      1.0310                 0.0452                 0.0433

                     16                     17                     18
                      A                      A                      A
 Frequencies --    397.1567               404.0981               404.1824
 Red. masses --      7.7401                 8.0319                 8.0186
 Frc consts  --      0.7193                 0.7728                 0.7718
 IR Inten    --      0.3037                10.1062                10.1083

                     19                     20                     21
                      A                      A                      A
 Frequencies --    420.6615               420.7597               424.7503
 Red. masses --      3.2845                 3.2766                 3.1355
 Frc consts  --      0.3424                 0.3418                 0.3333
 IR Inten    --      1.1647                 1.0775                 0.0244

                     22                     23                     24
                      A                      A                      A
 Frequencies --    434.9944               435.2480               463.5964
 Red. masses --      6.1415                 6.1540                 6.6460
 Frc consts  --      0.6847                 0.6869                 0.8416
 IR Inten    --     18.8941                19.0747                 7.4003

                     25                     26                     27
                      A                      A                      A
 Frequencies --    533.0170               533.1730               535.5752
 Red. masses --      2.8108                 2.8119                 2.9070
 Frc consts  --      0.4705                 0.4710                 0.4913
 IR Inten    --     21.9207                21.8125                13.4884

                     28                     29                     30
                      A                      A                      A
 Frequencies --    608.0764               629.9999               630.0498
 Red. masses --      7.9093                 7.8318                 7.8285
 Frc consts  --      1.7231                 1.8314                 1.8310
 IR Inten    --      0.0096                 0.0364                 0.0392

                     31                     32                     33
                      A                      A                      A
 Frequencies --    648.2412               648.3775               648.4549
 Red. masses --      7.2771                 7.3787                 7.3810
 Frc consts  --      1.8017                 1.8276                 1.8286
 IR Inten    --      0.0049                 0.1273                 0.1297

                     34                     35                     36
                      A                      A                      A
 Frequencies --    715.1496               715.6503               715.7333
 Red. masses --      4.8100                 4.8251                 4.8309
 Frc consts  --      1.4494                 1.4560                 1.4581
 IR Inten    --      1.0850                 3.9400                 3.9350

                     37                     38                     39
                      A                      A                      A
 Frequencies --    835.7448               835.8183               836.8412
 Red. masses --      1.2633                 1.2616                 1.3272
 Frc consts  --      0.5199                 0.5193                 0.5476
 IR Inten    --      0.5335                 0.4519                11.3558

                     40                     41                     42
                      A                      A                      A
 Frequencies --    839.5437               839.5717               839.8190
 Red. masses --      3.2647                 3.2751                 4.0243
 Frc consts  --      1.3557                 1.3602                 1.6723
 IR Inten    --     62.0200                61.3195                18.6061

                     43                     44                     45
                      A                      A                      A
 Frequencies --    843.6510               843.7739               844.1166
 Red. masses --      2.0004                 1.9679                 1.6800
 Frc consts  --      0.8389                 0.8255                 0.7053
 IR Inten    --      9.9853                10.2432                12.0809

                     46                     47                     48
                      A                      A                      A
 Frequencies --    958.6577               958.7374               959.8648
 Red. masses --      1.2560                 1.2560                 1.2588
 Frc consts  --      0.6801                 0.6802                 0.6833
 IR Inten    --      0.1676                 0.1646                 0.3306

                     49                     50                     51
                      A                      A                      A
 Frequencies --    969.9391               969.9775               973.5090
 Red. masses --      1.3353                 1.3352                 1.3192
 Frc consts  --      0.7402                 0.7402                 0.7366
 IR Inten    --      0.0355                 0.0330                 0.3106

                     52                     53                     54
                      A                      A                      A
 Frequencies --   1034.7190              1034.8119              1035.1898
 Red. masses --      3.0269                 3.0329                 3.0246
 Frc consts  --      1.9094                 1.9135                 1.9097
 IR Inten    --      7.9565                 7.8758                 0.1440

                     55                     56                     57
                      A                      A                      A
 Frequencies --   1102.9059              1103.1770              1108.8248
 Red. masses --      3.6672                 3.6666                 3.5537
 Frc consts  --      2.6282                 2.6291                 2.5743
 IR Inten    --     19.3458                19.1207                 1.8945

                     58                     59                     60
                      A                      A                      A
 Frequencies --   1127.5336              1127.7601              1127.9710
 Red. masses --      1.3306                 1.3302                 1.3293
 Frc consts  --      0.9967                 0.9968                 0.9965
 IR Inten    --      0.9474                 2.1766                 5.9118

                     61                     62                     63
                      A                      A                      A
 Frequencies --   1195.2230              1195.6673              1199.5191
 Red. masses --      1.1835                 1.1857                 1.1805
 Frc consts  --      0.9962                 0.9987                 1.0008
 IR Inten    --     60.6328                61.1716                 2.6594

                     64                     65                     66
                      A                      A                      A
 Frequencies --   1285.3226              1285.4886              1286.2151
 Red. masses --      3.7558                 3.7411                 3.7826
 Frc consts  --      3.6557                 3.6424                 3.6870
 IR Inten    --    167.5063               165.9644                38.9445

                     67                     68                     69
                      A                      A                      A
 Frequencies --   1324.1714              1327.2836              1327.8379
 Red. masses --      2.7469                 2.2251                 2.3442
 Frc consts  --      2.8378                 2.3096                 2.4352
 IR Inten    --      8.7979                 3.8881                 3.8770

                     70                     71                     72
                      A                      A                      A
 Frequencies --   1336.7030              1336.9149              1337.1945
 Red. masses --      2.3251                 2.2003                 1.9433
 Frc consts  --      2.4477                 2.3171                 2.0473
 IR Inten    --      0.3426                 0.4064                 0.8369

                     73                     74                     75
                      A                      A                      A
 Frequencies --   1437.9348              1438.0676              1438.2862
 Red. masses --      2.9852                 2.9932                 2.9863
 Frc consts  --      3.6366                 3.6471                 3.6397
 IR Inten    --      6.8667                 2.6132                 2.6465

                     76                     77                     78
                      A                      A                      A
 Frequencies --   1545.5652              1545.7504              1546.5364
 Red. masses --      2.4083                 2.4044                 2.4441
 Frc consts  --      3.3895                 3.3848                 3.4442
 IR Inten    --    116.3250               116.3963                24.4951

                     79                     80                     81
                      A                      A                      A
 Frequencies --   1633.9208              1633.9794              1634.0144
 Red. masses --      6.9690                 6.9571                 6.9598
 Frc consts  --     10.9619                10.9438                10.9486
 IR Inten    --      9.2256                14.7505                10.7961

                     82                     83                     84
                      A                      A                      A
 Frequencies --   1653.5139              1653.5711              1654.3911
 Red. masses --      5.8085                 5.8057                 5.8787
 Frc consts  --      9.3569                 9.3530                 9.4800
 IR Inten    --     82.8568                82.5516                22.5995

                     85                     86                     87
                      A                      A                      A
 Frequencies --   3188.7741              3188.8629              3188.9604
 Red. masses --      1.0892                 1.0892                 1.0892
 Frc consts  --      6.5255                 6.5257                 6.5260
 IR Inten    --      5.5743                 4.1582                 3.6575

                     88                     89                     90
                      A                      A                      A
 Frequencies --   3205.7826              3205.8856              3206.5002
 Red. masses --      1.0878                 1.0878                 1.0879
 Frc consts  --      6.5866                 6.5870                 6.5900
 IR Inten    --      2.0223                 2.0220                 0.3649

                     91                     92                     93
                      A                      A                      A
 Frequencies --   3221.8663              3221.9654              3222.1641
 Red. masses --      1.0942                 1.0942                 1.0940
 Frc consts  --      6.6921                 6.6923                 6.6923
 IR Inten    --      3.4713                 3.0685                11.5173

                     94                     95                     96
                      A                      A                      A
 Frequencies --   3222.6034              3222.6388              3222.8648
 Red. masses --      1.0937                 1.0936                 1.0939
 Frc consts  --      6.6919                 6.6919                 6.6947
 IR Inten    --     12.1942                12.3242                 0.2246

 - Thermochemistry -
 -------------------
 Temperature   298.150 Kelvin.  Pressure   1.00000 Atm.
 Atom     1 has atomic number  6 and mass  12.00000

 Molecular mass:   316.06287 amu.
 Principal axes and moments of inertia in atomic units:
                           1         2         3
     Eigenvalues --  8313.586848323.30214**********
           X            0.99966   0.02608  -0.00002
           Y           -0.02608   0.99966  -0.00004
           Z            0.00002   0.00004   1.00000
 This molecule is an asymmetric top.
 Rotational symmetry number  1.
 Warning -- assumption of classical behavior for rotation
           may cause significant error
 Rotational temperatures (Kelvin)      0.01042     0.01041     0.00597
 Rotational constants (GHZ):           0.21708     0.21683     0.12431
 Zero-point vibrational energy     655299.0 (Joules/Mol)
                                  156.62022 (Kcal/Mol)
 Warning -- explicit consideration of  28 degrees of freedom as
           vibrations may cause significant error
 Vibrational temperatures:     33.68    35.67    53.85    54.10    58.23
          (Kelvin)             72.82   191.37   209.33   209.78   300.73
                              314.89   315.84   443.07   483.44   483.60
                              571.42   581.41   581.53   605.24   605.38
                              611.12   625.86   626.22   667.01   766.89
                              767.12   770.57   874.89   906.43   906.50
                              932.67   932.87   932.98  1028.94  1029.66
                             1029.78  1202.45  1202.56  1204.03  1207.92
                             1207.96  1208.31  1213.83  1214.00  1214.50
                             1379.29  1379.41  1381.03  1395.53  1395.58
                             1400.66  1488.73  1488.86  1489.41  1586.84
                             1587.23  1595.35  1622.27  1622.60  1622.90
                             1719.66  1720.30  1725.84  1849.29  1849.53
                             1850.58  1905.19  1909.67  1910.46  1923.22
                             1923.52  1923.92  2068.87  2069.06  2069.37
                             2223.72  2223.99  2225.12  2350.85  2350.93
                             2350.98  2379.04  2379.12  2380.30  4587.93
                             4588.06  4588.20  4612.41  4612.55  4613.44
                             4635.55  4635.69  4635.98  4636.61  4636.66
                             4636.98

 Zero-point correction=                           0.249590 (Hartree/Particle)
 Thermal correction to Energy=                    0.268019
 Thermal correction to Enthalpy=                  0.268963
 Thermal correction to Gibbs Free Energy=         0.199525
 Sum of electronic and zero-point Energies=          -1333.749386
 Sum of electronic and thermal Energies=             -1333.730957
 Sum of electronic and thermal Enthalpies=           -1333.730013
 Sum of electronic and thermal Free Energies=        -1333.799451

                     E (Thermal)             CV                S
                      KCal/Mol        Cal/Mol-Kelvin    Cal/Mol-Kelvin
 Total                  168.185             71.393            146.145
 Electronic               0.000              0.000              0.000
 Translational            0.889              2.981             43.148
 Rotational               0.889              2.981             35.262
 Vibrational            166.407             65.431             67.735
 Vibration     1          0.593              1.985              6.322
 Vibration     2          0.593              1.985              6.208
 Vibration     3          0.594              1.982              5.391
 Vibration     4          0.594              1.982              5.382
 Vibration     5          0.594              1.981              5.236
 Vibration     6          0.595              1.977              4.793
 Vibration     7          0.613              1.920              2.902
 Vibration     8          0.617              1.908              2.730
 Vibration     9          0.617              1.907              2.726
 Vibration    10          0.642              1.827              2.052
 Vibration    11          0.647              1.812              1.968
 Vibration    12          0.647              1.811              1.963
 Vibration    13          0.698              1.659              1.373
 Vibration    14          0.717              1.604              1.231
 Vibration    15          0.717              1.603              1.231
 Vibration    16          0.764              1.476              0.973
 Vibration    17          0.769              1.461              0.948
 Vibration    18          0.769              1.461              0.947
 Vibration    19          0.783              1.425              0.890
 Vibration    20          0.783              1.425              0.889
 Vibration    21          0.787              1.416              0.876
 Vibration    22          0.796              1.394              0.842
 Vibration    23          0.796              1.393              0.842
 Vibration    24          0.821              1.331              0.756
 Vibration    25          0.888              1.177              0.581
 Vibration    26          0.888              1.177              0.580
 Vibration    27          0.891              1.171              0.575
 Vibration    28          0.967              1.015              0.436

 Optimization completed.
    -- Stationary point found.
 Normal termination of Gaussian 16 at Sun Aug 23 14:21:53 2020.
 Gaussian 16:  ES64L-G16RevA.03 25-Dec-2016

 ----------------------------------------------------------------------
 # TD(NStates=10, Root=1) B3LYP/6-31G* scf=qc volume pop=NPA density=cu
 rrent Geom=AllCheck Guess=Read
 ----------------------------------------------------------------------

 Structure from the checkpoint file:  "phosphine_5_conf113.chk"
 -------------------
 Title Card Required
 -------------------
 Charge =  0 Multiplicity = 1

                         Standard orientation:
 ---------------------------------------------------------------------
 Center     Atomic      Atomic             Coordinates (Angstroms)
 Number     Number       Type             X           Y           Z
 ---------------------------------------------------------------------
      1          6           0       -2.363699    3.292910    0.695957
      2          6           0       -1.778291    2.138869    1.213431
      3          6           0       -0.691217    1.519422    0.572212
      4          6           0       -0.186884    2.105808   -0.599464
      5          6           0       -0.753286    3.267846   -1.125382
      6          6           0       -1.836598    3.839581   -0.468891
      7          9           0       -2.388608    4.962490   -0.972272
      8         15           0        0.000858   -0.000249    1.374937
      9          6           0       -0.969822   -1.358564    0.571594
     10          6           0       -1.720262   -1.216619   -0.606472
     11          6           0       -2.444546   -2.286989   -1.133073
     12          6           0       -2.408894   -3.508260   -0.470635
     13          6           0       -1.681552   -3.689725    0.700483
     14          6           0       -0.973366   -2.606817    1.218352
     15          9           0       -3.106706   -4.546610   -0.974477
     16          6           0        1.662714   -0.161130    0.571880
     17          6           0        2.744730    0.461870    1.218106
     18          6           0        4.036826    0.390807    0.700595
     19          6           0        4.244370   -0.331098   -0.469559
     20          6           0        3.205394   -0.974663   -1.131322
     21          6           0        1.916052   -0.883311   -0.605151
     22          9           0        5.492695   -0.415436   -0.973089
     23          1           0       -3.204508    3.775359    1.183634
     24          1           0       -2.170933    1.715111    2.134534
     25          1           0        0.661201    1.657469   -1.107725
     26          1           0       -0.368276    3.730717   -2.028414
     27          1           0       -1.747524   -0.259941   -1.118957
     28          1           0       -3.030685   -2.186281   -2.040961
     29          1           0       -1.687359   -4.656903    1.192509
     30          1           0       -0.417500   -2.733435    2.144160
     31          1           0        2.575645    1.007531    2.143206
     32          1           0        4.876693    0.870938    1.192166
     33          1           0        3.412044   -1.533617   -2.038418
     34          1           0        1.101902   -1.386837   -1.117224
 ---------------------------------------------------------------------

 SCF Done:  E(RB3LYP) =  -1333.99897636     a.u. after    1 cycles

 Excitation energies and oscillator strengths:

 Excited State   1:      Singlet-A      4.5724 eV  271.16 nm  f=0.1342  <S**2>=0.000
      81 -> 82         0.69335
 This state for optimization and/or second-order correction.
 Total Energy, E(TD-HF/TD-DFT) =  -1333.83094242
 Copying the excited state density for this state as the 1-particle RhoCI density.

 Excited State   2:      Singlet-A      4.5764 eV  270.92 nm  f=0.1355  <S**2>=0.000
      81 -> 83         0.69275

 Excited State   3:      Singlet-A      4.5868 eV  270.31 nm  f=0.0104  <S**2>=0.000
      81 -> 84         0.68804

 Excited State   4:      Singlet-A      4.9050 eV  252.77 nm  f=0.0018  <S**2>=0.000
      81 -> 85         0.67644

 Excited State   5:      Singlet-A      4.9070 eV  252.67 nm  f=0.0016  <S**2>=0.000
      81 -> 86         0.67597

 Excited State   6:      Singlet-A      5.2397 eV  236.63 nm  f=0.0075  <S**2>=0.000
      79 -> 82        -0.10607
      80 -> 83         0.10728
      81 -> 87         0.67228

 Excited State   7:      Singlet-A      5.4167 eV  228.89 nm  f=0.0001  <S**2>=0.000
      75 -> 84         0.14134
      77 -> 82         0.18293
      78 -> 83        -0.16007
      79 -> 82         0.27744
      79 -> 83         0.29969
      79 -> 85         0.15427
      80 -> 82         0.30002
      80 -> 83        -0.27178
      80 -> 86        -0.13945

 Excited State   8:      Singlet-A      5.4448 eV  227.71 nm  f=0.0019  <S**2>=0.000
      76 -> 82         0.21173
      77 -> 82        -0.11062
      77 -> 83        -0.15112
      77 -> 87         0.12187
      78 -> 82         0.15167
      78 -> 83        -0.12218
      79 -> 84        -0.31003
      79 -> 86        -0.15263
      80 -> 84         0.39218
      80 -> 85         0.15228
      81 -> 85        -0.12449

 Excited State   9:      Singlet-A      5.4463 eV  227.65 nm  f=0.0021  <S**2>=0.000
      76 -> 83         0.20773
      77 -> 82        -0.13763
      77 -> 83         0.11332
      78 -> 82        -0.11699
      78 -> 83        -0.15953
      78 -> 87        -0.12159
      79 -> 84         0.38658
      79 -> 85        -0.14434
      80 -> 84         0.31933
      80 -> 86        -0.16032
      81 -> 86        -0.12541

 Excited State  10:      Singlet-A      5.6621 eV  218.97 nm  f=0.0034  <S**2>=0.000
      75 -> 84        -0.16240
      76 -> 84        -0.10191
      77 -> 82        -0.24689
      78 -> 83         0.23178
      79 -> 83         0.20624
      79 -> 85        -0.21888
      79 -> 86         0.10665
      80 -> 82         0.36473
      80 -> 85         0.11003
      80 -> 86         0.23763

 The electronic state is 1-A.
 Alpha  occ. eigenvalues --  -77.09285 -24.70935 -24.70935 -24.70928 -10.27932
 Alpha  occ. eigenvalues --  -10.27931 -10.27923 -10.20803 -10.20802 -10.20798
 Alpha  occ. eigenvalues --  -10.20703 -10.20702 -10.20695 -10.20479 -10.20478
 Alpha  occ. eigenvalues --  -10.20477 -10.20319 -10.20319 -10.20312 -10.20310
 Alpha  occ. eigenvalues --  -10.20309 -10.20306  -6.55986  -4.72247  -4.72247
 Alpha  occ. eigenvalues --   -4.71743  -1.22114  -1.22113  -1.22106  -0.87207
 Alpha  occ. eigenvalues --   -0.86557  -0.86553  -0.77802  -0.76322  -0.76286
 Alpha  occ. eigenvalues --   -0.76284  -0.74869  -0.74865  -0.65458  -0.63139
 Alpha  occ. eigenvalues --   -0.62959  -0.62957  -0.60999  -0.60996  -0.57074
 Alpha  occ. eigenvalues --   -0.54666  -0.54664  -0.54254  -0.49447  -0.49443
 Alpha  occ. eigenvalues --   -0.49382  -0.48019  -0.48018  -0.46312  -0.46308
 Alpha  occ. eigenvalues --   -0.46295  -0.45865  -0.44922  -0.44920  -0.43857
 Alpha  occ. eigenvalues --   -0.43707  -0.43704  -0.42082  -0.40157  -0.40108
 Alpha  occ. eigenvalues --   -0.40107  -0.37163  -0.37157  -0.36438  -0.34998
 Alpha  occ. eigenvalues --   -0.34996  -0.34951  -0.33924  -0.33921  -0.27230
 Alpha  occ. eigenvalues --   -0.26848  -0.26602  -0.26595  -0.25429  -0.25418
 Alpha  occ. eigenvalues --   -0.21919
 Alpha virt. eigenvalues --   -0.02516  -0.02506  -0.02413  -0.01176  -0.01168
 Alpha virt. eigenvalues --   -0.00310   0.05875   0.05896   0.08467   0.10088
 Alpha virt. eigenvalues --    0.10090   0.12846   0.13529   0.13531   0.14052

 Mulliken charges:
               1
     1  C   -0.182969
     2  C   -0.162089
     3  C   -0.079592
     4  C   -0.150859
     5  C   -0.185238
     6  C    0.390926
     7  F   -0.281881
     8  P    0.435611
     9  C   -0.104270
    10  C   -0.187316
    11  C   -0.178424
    12  C    0.356295
    13  C   -0.199885
    14  C   -0.154957
    15  F   -0.298459
    16  C   -0.125235
    17  C   -0.181151
    18  C   -0.183127
    19  C    0.346755
    20  C   -0.188867
    21  C   -0.166240
    22  F   -0.301517
    23  H    0.161844
    24  H    0.158249
    25  H    0.180900
    26  H    0.165200
    27  H    0.132745
    28  H    0.143559
    29  H    0.141181
    30  H    0.139343
    31  H    0.128009
    32  H    0.138603
    33  H    0.142352
    34  H    0.150506
 Sum of Mulliken charges =  -0.00000

 Dipole moment (field-independent basis, Debye):
    X=             -1.7004    Y=              2.9660    Z=              1.4589  Tot=              3.7171
 Quadrupole moment (field-independent basis, Debye-Ang):
   XX=           -144.2334   YY=           -134.8035   ZZ=           -121.8247
   XY=             -4.6340   XZ=             -0.4448   YZ=             -0.8403

 Summary of Natural Population Analysis:

                                       Natural Population
                Natural  -----------------------------------------------
    Atom  No    Charge         Core      Valence    Rydberg      Total
 -----------------------------------------------------------------------
      C    1   -0.30096      1.99899     4.28708    0.01490     6.30096
      C    2   -0.19533      1.99903     4.18098    0.01532     6.19533
      C    3   -0.39000      1.99891     4.36576    0.02533     6.39000
      C    4   -0.19293      1.99901     4.17788    0.01605     6.19293
      C    5   -0.29897      1.99898     4.28522    0.01477     6.29897
      C    6    0.45492      1.99844     3.51955    0.02709     5.54508
      F    7   -0.31920      1.99994     7.31367    0.00560     9.31920
      P    8    1.21012      9.99756     3.74079    0.05152    13.78988
      C    9   -0.44538      1.99887     4.42205    0.02445     6.44538
      C   10   -0.27306      1.99900     4.25542    0.01864     6.27306
      C   11   -0.28466      1.99899     4.27088    0.01479     6.28466
      C   12    0.39986      1.99844     3.57393    0.02777     5.60014
      C   13   -0.33149      1.99899     4.31623    0.01626     6.33149
      C   14   -0.18568      1.99902     4.17131    0.01535     6.18568
      F   15   -0.33376      1.99994     7.32831    0.00551     9.33376
      C   16   -0.48197      1.99888     4.45648    0.02661     6.48197
      C   17   -0.23191      1.99903     4.21639    0.01648     6.23191
      C   18   -0.29904      1.99900     4.28492    0.01512     6.29904
      C   19    0.38226      1.99844     3.59133    0.02797     5.61774
      C   20   -0.30319      1.99899     4.28895    0.01526     6.30319
      C   21   -0.22451      1.99900     4.20825    0.01726     6.22451
      F   22   -0.33664      1.99994     7.33118    0.00551     9.33664
      H   23    0.25844      0.00000     0.74038    0.00118     0.74156
      H   24    0.24759      0.00000     0.75123    0.00119     0.75241
      H   25    0.26436      0.00000     0.73444    0.00120     0.73564
      H   26    0.26053      0.00000     0.73829    0.00117     0.73947
      H   27    0.23785      0.00000     0.76081    0.00134     0.76215
      H   28    0.24994      0.00000     0.74885    0.00121     0.75006
      H   29    0.24930      0.00000     0.74953    0.00117     0.75070
      H   30    0.23835      0.00000     0.76052    0.00113     0.76165
      H   31    0.23133      0.00000     0.76779    0.00089     0.76867
      H   32    0.24716      0.00000     0.75160    0.00124     0.75284
      H   33    0.24975      0.00000     0.74905    0.00120     0.75025
      H   34    0.24692      0.00000     0.75138    0.00170     0.75308
 =======================================================================
   * Total *   -0.00000     51.97740   109.59044    0.43216   162.00000

 Normal termination of Gaussian 16 at Sun Aug 23 14:37:24 2020.
