 Gaussian 16, Revision A.03,

 ---------------------------------
 # opt=CalcAll B3LYP/6-31G* scf=qc
 ---------------------------------

 -------------------
 Title Card Required
 -------------------
 Symbolic Z-matrix:
 Charge =  0 Multiplicity = 1

 SCF Done:  E(RB3LYP) =  -844.557077186     a.u. after    8 cycles
 SCF Done:  E(RB3LYP) =  -844.563133075     a.u. after   15 cycles
 SCF Done:  E(RB3LYP) =  -844.564095128     a.u. after   17 cycles
 SCF Done:  E(RB3LYP) =  -844.564317398     a.u. after   11 cycles
 SCF Done:  E(RB3LYP) =  -844.564325426     a.u. after    7 cycles
 SCF Done:  E(RB3LYP) =  -844.564312744     a.u. after   11 cycles
 SCF Done:  E(RB3LYP) =  -844.564329517     a.u. after    9 cycles
 Optimization completed.
    -- Stationary point found.
 Normal termination of Gaussian 16 at Sun Aug 23 12:19:22 2020.

 ----------------------------------------------------------------------
 # freq B3LYP/6-31G* scf=qc volume NMR pop=NPA density=current Geom=All
 Check Guess=Read
 ----------------------------------------------------------------------

 Structure from the checkpoint file:  "phosphine_3_conf42.chk"
 -------------------
 Title Card Required
 -------------------
 Charge =  0 Multiplicity = 1

 SCF Done:  E(RB3LYP) =  -844.564329517     a.u. after    1 cycles

      1  C    Isotropic =   173.0294   Anisotropy =    19.3167

      2  H    Isotropic =    30.7058   Anisotropy =     7.2642

      3  H    Isotropic =    30.7465   Anisotropy =    10.5212

      4  H    Isotropic =    31.0009   Anisotropy =     8.5282

      5  P    Isotropic =   385.0968   Anisotropy =    60.1433

      6  C    Isotropic =    52.8112   Anisotropy =   183.2237

      7  C    Isotropic =    67.9782   Anisotropy =   167.4554

      8  C    Isotropic =    68.8483   Anisotropy =   164.0555

      9  C    Isotropic =    69.4088   Anisotropy =   165.2790

     10  C    Isotropic =    68.8067   Anisotropy =   164.5550

     11  C    Isotropic =    62.5995   Anisotropy =   166.8211

     12  C    Isotropic =    51.8787   Anisotropy =   182.8326

     13  C    Isotropic =    60.5082   Anisotropy =   159.8341

     14  C    Isotropic =    69.1694   Anisotropy =   163.2064

     15  C    Isotropic =    67.5069   Anisotropy =   168.2983

     16  C    Isotropic =    68.2796   Anisotropy =   164.2370

     17  C    Isotropic =    62.8815   Anisotropy =   171.1503

     18  H    Isotropic =    24.8786   Anisotropy =     9.9867

     19  H    Isotropic =    24.9261   Anisotropy =     4.8997

     20  H    Isotropic =    25.0791   Anisotropy =     3.7311

     21  H    Isotropic =    25.0463   Anisotropy =     4.9702

     22  H    Isotropic =    24.9768   Anisotropy =    10.0434

     23  H    Isotropic =    24.4818   Anisotropy =     7.9904

     24  H    Isotropic =    24.9617   Anisotropy =     4.4625

     25  H    Isotropic =    25.0156   Anisotropy =     3.8949

     26  H    Isotropic =    25.0797   Anisotropy =     5.9098

     27  H    Isotropic =    25.1725   Anisotropy =    11.3376

  Exact polarizability: 201.352  -1.900 138.178  20.867  -1.674 118.017
 Approx polarizability: 285.353  -3.978 225.207  48.257  -5.080 209.462

                      1                      2                      3
                      A                      A                      A
 Frequencies --     19.5378                29.8659                55.8890
 Red. masses --      3.7885                 3.8331                 5.0693
 Frc consts  --      0.0009                 0.0020                 0.0093
 IR Inten    --      0.2503                 0.0675                 0.0709

                      4                      5                      6
                      A                      A                      A
 Frequencies --    117.5932               178.7310               186.8627
 Red. masses --      3.3693                 3.4627                 3.6244
 Frc consts  --      0.0275                 0.0652                 0.0746
 IR Inten    --      0.5130                 0.7308                 0.2036

                      7                      8                      9
                      A                      A                      A
 Frequencies --    233.3390               246.5176               267.1184
 Red. masses --      1.8385                 1.6534                 3.6528
 Frc consts  --      0.0590                 0.0592                 0.1536
 IR Inten    --      0.4913                 0.3038                 0.1571

                     10                     11                     12
                      A                      A                      A
 Frequencies --    323.2174               396.5405               408.1647
 Red. masses --      4.4979                 5.9084                 3.1703
 Frc consts  --      0.2769                 0.5474                 0.3112
 IR Inten    --      2.2760                 2.7615                 2.9002

                     13                     14                     15
                      A                      A                      A
 Frequencies --    412.6946               419.7996               488.2482
 Red. masses --      3.0630                 6.9774                 3.5146
 Frc consts  --      0.3074                 0.7245                 0.4936
 IR Inten    --      0.6108                 8.2526                10.4496

                     16                     17                     18
                      A                      A                      A
 Frequencies --    515.9314               632.6633               633.0543
 Red. masses --      3.9378                 6.4094                 6.4009
 Frc consts  --      0.6176                 1.5115                 1.5114
 IR Inten    --     12.4476                 0.1766                 0.0936

                     19                     20                     21
                      A                      A                      A
 Frequencies --    674.1950               702.6885               705.0627
 Red. masses --      5.3388                 6.1942                 4.9311
 Frc consts  --      1.4298                 1.8020                 1.4443
 IR Inten    --      8.3455                 0.9815                 3.2390

                     22                     23                     24
                      A                      A                      A
 Frequencies --    712.0425               713.7051               757.4387
 Red. masses --      2.2692                 2.0644                 1.5775
 Frc consts  --      0.6778                 0.6196                 0.5332
 IR Inten    --     20.8101                26.9706                35.5391

                     25                     26                     27
                      A                      A                      A
 Frequencies --    763.0410               861.1916               867.3709
 Red. masses --      1.7192                 1.2514                 1.2452
 Frc consts  --      0.5898                 0.5468                 0.5520
 IR Inten    --     13.6728                 0.1861                 0.0195

                     28                     29                     30
                      A                      A                      A
 Frequencies --    910.2737               919.8158               922.6669
 Red. masses --      1.3086                 1.2938                 1.3543
 Frc consts  --      0.6388                 0.6449                 0.6793
 IR Inten    --     24.9639                28.3842                 1.4452

                     31                     32                     33
                      A                      A                      A
 Frequencies --    936.6932               969.7314               977.1818
 Red. masses --      1.3619                 1.3597                 1.3601
 Frc consts  --      0.7040                 0.7534                 0.7652
 IR Inten    --      4.6220                 0.0623                 0.1017

                     34                     35                     36
                      A                      A                      A
 Frequencies --    996.8469              1001.2361              1015.2445
 Red. masses --      1.2506                 1.2591                 6.2352
 Frc consts  --      0.7322                 0.7437                 3.7865
 IR Inten    --      0.1414                 0.0535                 1.2365

                     37                     38                     39
                      A                      A                      A
 Frequencies --   1015.9815              1052.1450              1054.4505
 Red. masses --      6.2493                 3.2222                 3.1937
 Frc consts  --      3.8006                 2.1016                 2.0922
 IR Inten    --      2.5449                 1.0737                 1.1838

                     40                     41                     42
                      A                      A                      A
 Frequencies --   1106.2600              1112.2047              1113.0425
 Red. masses --      1.7295                 1.7328                 2.4359
 Frc consts  --      1.2470                 1.2629                 1.7780
 IR Inten    --      1.6994                 2.3600                13.3904

                     43                     44                     45
                      A                      A                      A
 Frequencies --   1117.9827              1193.4819              1194.2028
 Red. masses --      2.5263                 1.1026                 1.0987
 Frc consts  --      1.8604                 0.9254                 0.9232
 IR Inten    --      2.1423                 0.0065                 0.0649

                     46                     47                     48
                      A                      A                      A
 Frequencies --   1216.9009              1223.4409              1323.7612
 Red. masses --      1.1444                 1.1502                 3.2575
 Frc consts  --      0.9985                 1.0144                 3.3632
 IR Inten    --      3.9184                 0.6704                 2.3645

                     49                     50                     51
                      A                      A                      A
 Frequencies --   1331.6472              1351.3772              1363.1492
 Red. masses --      3.3535                 1.2959                 1.7090
 Frc consts  --      3.5037                 1.3944                 1.8710
 IR Inten    --      2.8857                 2.1900                 1.4878

                     52                     53                     54
                      A                      A                      A
 Frequencies --   1371.5857              1479.5063              1482.4578
 Red. masses --      1.5136                 2.0991                 2.0754
 Frc consts  --      1.6776                 2.7071                 2.6873
 IR Inten    --      2.1525                12.2546                 5.4823

                     55                     56                     57
                      A                      A                      A
 Frequencies --   1501.1531              1502.1907              1530.8719
 Red. masses --      1.0620                 1.0627                 2.0236
 Frc consts  --      1.4100                 1.4128                 2.7941
 IR Inten    --      4.2368                16.6846                 4.9380

                     58                     59                     60
                      A                      A                      A
 Frequencies --   1534.8469              1630.0471              1632.4642
 Red. masses --      1.9731                 5.0202                 5.1790
 Frc consts  --      2.7385                 7.8590                 8.1318
 IR Inten    --      6.4757                 1.1072                 0.2835

                     61                     62                     63
                      A                      A                      A
 Frequencies --   1646.7252              1649.4670              3049.5013
 Red. masses --      5.3166                 5.2605                 1.0329
 Frc consts  --      8.4943                 8.4327                 5.6593
 IR Inten    --      1.7992                 3.4003                12.5539

                     64                     65                     66
                      A                      A                      A
 Frequencies --   3131.3246              3138.0771              3174.9087
 Red. masses --      1.1045                 1.1020                 1.0855
 Frc consts  --      6.3805                 6.3940                 6.4466
 IR Inten    --     12.2583                 8.6960                 3.7732

                     67                     68                     69
                      A                      A                      A
 Frequencies --   3176.3213              3181.6335              3182.0181
 Red. masses --      1.0847                 1.0871                 1.0872
 Frc consts  --      6.4480                 6.4836                 6.4859
 IR Inten    --      1.4529                 0.5387                 0.2239

                     70                     71                     72
                      A                      A                      A
 Frequencies --   3190.9776              3192.1300              3198.2194
 Red. masses --      1.0907                 1.0916                 1.0939
 Frc consts  --      6.5432                 6.5538                 6.5927
 IR Inten    --      9.6899                21.0453                33.3459

                     73                     74                     75
                      A                      A                      A
 Frequencies --   3203.7136              3207.1118              3210.6034
 Red. masses --      1.0936                 1.0979                 1.0954
 Frc consts  --      6.6135                 6.6536                 6.6527
 IR Inten    --     34.2037                31.3333                18.4706

 - Thermochemistry -
 -------------------
 Temperature   298.150 Kelvin.  Pressure   1.00000 Atm.
 Atom     1 has atomic number  6 and mass  12.00000

 Molecular mass:   200.07549 amu.
 Principal axes and moments of inertia in atomic units:
                           1         2         3
     Eigenvalues --  1569.857404674.946195299.39274
           X            0.99999  -0.00073   0.00535
           Y            0.00048   0.99898   0.04515
           Z           -0.00538  -0.04514   0.99897
 This molecule is an asymmetric top.
 Rotational symmetry number  1.
 Warning -- assumption of classical behavior for rotation
           may cause significant error
 Rotational temperatures (Kelvin)      0.05517     0.01853     0.01634
 Rotational constants (GHZ):           1.14962     0.38605     0.34056
 Zero-point vibrational energy     579830.4 (Joules/Mol)
                                  138.58280 (Kcal/Mol)
 Warning -- explicit consideration of  16 degrees of freedom as
           vibrations may cause significant error
 Vibrational temperatures:     28.11    42.97    80.41   169.19   257.15
          (Kelvin)            268.85   335.72   354.68   384.32   465.04
                              570.53   587.26   593.78   604.00   702.48
                              742.31   910.26   910.82   970.02  1011.01
                             1014.43  1024.47  1026.86  1089.79  1097.85
                             1239.06  1247.95  1309.68  1323.41  1327.51
                             1347.69  1395.23  1405.95  1434.24  1440.56
                             1460.71  1461.77  1513.80  1517.12  1591.66
                             1600.21  1601.42  1608.53  1717.15  1718.19
                             1750.85  1760.26  1904.60  1915.94  1944.33
                             1961.27  1973.41  2128.68  2132.93  2159.82
                             2161.32  2202.58  2208.30  2345.27  2348.75
                             2369.27  2373.22  4387.55  4505.28  4514.99
                             4567.99  4570.02  4577.66  4578.21  4591.11
                             4592.76  4601.52  4609.43  4614.32  4619.34

 Zero-point correction=                           0.220846 (Hartree/Particle)
 Thermal correction to Energy=                    0.233542
 Thermal correction to Enthalpy=                  0.234486
 Thermal correction to Gibbs Free Energy=         0.179762
 Sum of electronic and zero-point Energies=           -844.343484
 Sum of electronic and thermal Energies=              -844.330788
 Sum of electronic and thermal Enthalpies=            -844.329843
 Sum of electronic and thermal Free Energies=         -844.384568

                     E (Thermal)             CV                S
                      KCal/Mol        Cal/Mol-Kelvin    Cal/Mol-Kelvin
 Total                  146.550             49.332            115.177
 Electronic               0.000              0.000              0.000
 Translational            0.889              2.981             41.785
 Rotational               0.889              2.981             32.031
 Vibrational            144.772             43.370             41.361
 Vibration     1          0.593              1.986              6.681
 Vibration     2          0.594              1.984              5.838
 Vibration     3          0.596              1.975              4.597
 Vibration     4          0.608              1.935              3.140
 Vibration     5          0.629              1.868              2.342
 Vibration     6          0.632              1.858              2.259
 Vibration     7          0.654              1.790              1.853
 Vibration     8          0.661              1.769              1.755
 Vibration     9          0.672              1.733              1.615
 Vibration    10          0.708              1.629              1.294
 Vibration    11          0.763              1.478              0.975
 Vibration    12          0.773              1.452              0.933
 Vibration    13          0.776              1.443              0.917
 Vibration    14          0.782              1.427              0.893
 Vibration    15          0.844              1.276              0.688
 Vibration    16          0.871              1.215              0.619

                           ! Non-Optimized Parameters !
 Normal termination of Gaussian 16 at Sun Aug 23 12:25:23 2020.
 Gaussian 16:  ES64L-G16RevA.03 25-Dec-2016

 ----------------------------------------------------------------------
 # TD(NStates=10, Root=1) B3LYP/6-31G* scf=qc volume pop=NPA density=cu
 rrent Geom=AllCheck Guess=Read
 ----------------------------------------------------------------------

 Structure from the checkpoint file:  "phosphine_3_conf43.chk"
 -------------------
 Title Card Required
 -------------------
 Charge =  0 Multiplicity = 1

                         Standard orientation:
 ---------------------------------------------------------------------
 Center     Atomic      Atomic             Coordinates (Angstroms)
 Number     Number       Type             X           Y           Z
 ---------------------------------------------------------------------
      1          6           0       -0.056808    2.585480    0.714133
      2          1           0        0.003133    2.108904    1.698599
      3          1           0        0.766765    3.299137    0.606541
      4          1           0       -0.994463    3.147025    0.656306
      5         15           0       -0.036827    1.368676   -0.701823
      6          6           0        1.434599    0.319043   -0.299798
      7          6           0        2.398789    0.657122    0.661380
      8          6           0        3.529100   -0.142378    0.854787
      9          6           0        3.713283   -1.296130    0.094481
     10          6           0        2.762457   -1.644148   -0.868986
     11          6           0        1.642297   -0.840676   -1.068702
     12          6           0       -1.438530    0.262884   -0.190295
     13          6           0       -2.620562    0.317012   -0.943440
     14          6           0       -3.728755   -0.458238   -0.593347
     15          6           0       -3.664443   -1.307188    0.511552
     16          6           0       -2.489659   -1.377395    1.265407
     17          6           0       -1.386612   -0.598216    0.917804
     18          1           0        2.277577    1.548077    1.269925
     19          1           0        4.263427    0.139001    1.605519
     20          1           0        4.591313   -1.918149    0.246704
     21          1           0        2.897470   -2.540103   -1.469569
     22          1           0        0.914901   -1.118413   -1.828308
     23          1           0       -2.670513    0.968509   -1.812811
     24          1           0       -4.637245   -0.403397   -1.187676
     25          1           0       -4.523010   -1.916046    0.782834
     26          1           0       -2.433446   -2.041196    2.124600
     27          1           0       -0.474434   -0.666518    1.504805
 ---------------------------------------------------------------------

 SCF Done:  E(RB3LYP) =  -844.564329517     a.u. after    1 cycles

 Excitation energies and oscillator strengths:

 Excited State   1:      Singlet-A      4.6040 eV  269.29 nm  f=0.0437  <S**2>=0.000
      53 -> 54         0.68710
      53 -> 55        -0.11814
 This state for optimization and/or second-order correction.
 Total Energy, E(TD-HF/TD-DFT) =  -844.395134253
 Copying the excited state density for this state as the 1-particle RhoCI density.

 Excited State   2:      Singlet-A      4.8964 eV  253.21 nm  f=0.0130  <S**2>=0.000
      51 -> 55         0.10686
      52 -> 54        -0.13742
      52 -> 55        -0.11036
      53 -> 55        -0.22462
      53 -> 56         0.62586

 Excited State   3:      Singlet-A      5.0078 eV  247.58 nm  f=0.1451  <S**2>=0.000
      53 -> 54         0.10868
      53 -> 55         0.61685
      53 -> 56         0.20058
      53 -> 57        -0.18792

 Excited State   4:      Singlet-A      5.1449 eV  240.99 nm  f=0.0379  <S**2>=0.000
      50 -> 55         0.12123
      51 -> 54        -0.20910
      52 -> 55         0.13399
      52 -> 56         0.10023
      53 -> 55         0.16843
      53 -> 56         0.12444
      53 -> 57         0.59551

 Excited State   5:      Singlet-A      5.4214 eV  228.69 nm  f=0.0047  <S**2>=0.000
      50 -> 55        -0.19276
      50 -> 56         0.26414
      50 -> 57         0.20855
      51 -> 54         0.36743
      51 -> 55        -0.15917
      52 -> 54         0.31180
      52 -> 56        -0.15524
      52 -> 57        -0.12196
      53 -> 56         0.12046
      53 -> 57         0.16414

 Excited State   6:      Singlet-A      5.7385 eV  216.06 nm  f=0.0118  <S**2>=0.000
      49 -> 56         0.20726
      49 -> 57        -0.15999
      50 -> 54         0.15913
      51 -> 54        -0.32366
      52 -> 54         0.48360
      53 -> 57        -0.18678

 Excited State   7:      Singlet-A      5.8272 eV  212.77 nm  f=0.0122  <S**2>=0.000
      49 -> 56         0.24723
      49 -> 57        -0.17899
      51 -> 54         0.14391
      51 -> 55        -0.13309
      51 -> 56        -0.11137
      52 -> 54        -0.18727
      52 -> 55         0.51489
      53 -> 57        -0.14700

 Excited State   8:      Singlet-A      5.8565 eV  211.70 nm  f=0.0224  <S**2>=0.000
      49 -> 54         0.18013
      49 -> 56         0.10169
      50 -> 54         0.46287
      50 -> 55         0.34268
      50 -> 56         0.16378
      51 -> 56        -0.10953
      52 -> 54        -0.14643
      52 -> 56        -0.19439

 Excited State   9:      Singlet-A      5.9275 eV  209.17 nm  f=0.0005  <S**2>=0.000
      50 -> 54         0.16572
      51 -> 54         0.20695
      51 -> 55         0.57092
      51 -> 56         0.12140
      52 -> 55         0.21620
      52 -> 56         0.13337

 Excited State  10:      Singlet-A      5.9924 eV  206.90 nm  f=0.0267  <S**2>=0.000
      49 -> 54        -0.31381
      50 -> 54        -0.20189
      50 -> 55         0.45895
      50 -> 56         0.17105
      51 -> 54         0.13471
      51 -> 56         0.16687
      52 -> 55        -0.12407
      52 -> 56         0.14940

 The electronic state is 1-A.
 Alpha  occ. eigenvalues --  -77.07968 -10.19393 -10.19299 -10.19192 -10.19093
 Alpha  occ. eigenvalues --  -10.19069 -10.19059 -10.19011 -10.19001 -10.18964
 Alpha  occ. eigenvalues --  -10.18943 -10.18900 -10.18858 -10.18421  -6.54710
 Alpha  occ. eigenvalues --   -4.70975  -4.70963  -4.70459  -0.85270  -0.84775
 Alpha  occ. eigenvalues --   -0.76467  -0.74320  -0.74256  -0.73797  -0.70920
 Alpha  occ. eigenvalues --   -0.62338  -0.60252  -0.59978  -0.59281  -0.55060
 Alpha  occ. eigenvalues --   -0.51449  -0.49651  -0.45409  -0.44649  -0.44598
 Alpha  occ. eigenvalues --   -0.44242  -0.42401  -0.42079  -0.41685  -0.41107
 Alpha  occ. eigenvalues --   -0.38955  -0.37870  -0.36382  -0.36120  -0.34370
 Alpha  occ. eigenvalues --   -0.34239  -0.32560  -0.31576  -0.26444  -0.25179
 Alpha  occ. eigenvalues --   -0.25017  -0.24726  -0.21381
 Alpha virt. eigenvalues --   -0.01531  -0.00808  -0.00418   0.00541   0.06285
 Alpha virt. eigenvalues --    0.07174   0.09234   0.10908   0.12718   0.13595
 Alpha virt. eigenvalues --    0.14142   0.14681   0.15151   0.15528   0.16191

 Mulliken charges:
               1
     1  C   -0.640398
     2  H    0.215691
     3  H    0.161096
     4  H    0.203681
     5  P    0.507519
     6  C   -0.067146
     7  C   -0.159639
     8  C   -0.112970
     9  C   -0.121576
    10  C   -0.115336
    11  C   -0.143162
    12  C   -0.150195
    13  C   -0.175862
    14  C   -0.134674
    15  C   -0.192759
    16  C   -0.109943
    17  C   -0.192203
    18  H    0.148000
    19  H    0.149046
    20  H    0.153054
    21  H    0.152349
    22  H    0.168804
    23  H    0.089982
    24  H    0.093509
    25  H    0.085528
    26  H    0.100201
    27  H    0.087402
 Sum of Mulliken charges =  -0.00000

 Dipole moment (field-independent basis, Debye):
    X=              6.9986    Y=              2.3434    Z=             -0.4358  Tot=              7.3933
 Quadrupole moment (field-independent basis, Debye-Ang):
   XX=            -91.9277   YY=            -83.0834   ZZ=            -86.8453
   XY=             -6.4523   XZ=              4.1059   YZ=              1.5603

 Summary of Natural Population Analysis:

                                       Natural Population
                Natural  -----------------------------------------------
    Atom  No    Charge         Core      Valence    Rydberg      Total
 -----------------------------------------------------------------------
      C    1   -1.03468      1.99946     5.02411    0.01111     7.03468
      H    2    0.27675      0.00000     0.72215    0.00109     0.72325
      H    3    0.23979      0.00000     0.75838    0.00183     0.76021
      H    4    0.27447      0.00000     0.72485    0.00069     0.72553
      P    5    1.26018      9.99755     3.69238    0.04989    13.73982
      C    6   -0.37086      1.99892     4.34870    0.02324     6.37086
      C    7   -0.21178      1.99900     4.19742    0.01536     6.21178
      C    8   -0.22546      1.99910     4.21212    0.01424     6.22546
      C    9   -0.19022      1.99909     4.17706    0.01406     6.19022
      C   10   -0.23278      1.99910     4.21951    0.01417     6.23278
      C   11   -0.18256      1.99902     4.16715    0.01639     6.18256
      C   12   -0.53812      1.99883     4.51437    0.02493     6.53812
      C   13   -0.23984      1.99902     4.22476    0.01606     6.23984
      C   14   -0.26937      1.99910     4.25433    0.01593     6.26937
      C   15   -0.34747      1.99910     4.33058    0.01779     6.34747
      C   16   -0.21955      1.99908     4.20601    0.01446     6.21955
      C   17   -0.30959      1.99898     4.29085    0.01976     6.30959
      H   18    0.24184      0.00000     0.75693    0.00123     0.75816
      H   19    0.24607      0.00000     0.75310    0.00083     0.75393
      H   20    0.24446      0.00000     0.75475    0.00079     0.75554
      H   21    0.24839      0.00000     0.75083    0.00078     0.75161
      H   22    0.25521      0.00000     0.74321    0.00159     0.74479
      H   23    0.21175      0.00000     0.78752    0.00073     0.78825
      H   24    0.22044      0.00000     0.77870    0.00086     0.77956
      H   25    0.21569      0.00000     0.78353    0.00078     0.78431
      H   26    0.22425      0.00000     0.77488    0.00086     0.77575
      H   27    0.21301      0.00000     0.78592    0.00106     0.78699
 =======================================================================
   * Total *   -0.00000     35.98536    69.73412    0.28052   106.00000

 Normal termination of Gaussian 16 at Sun Aug 23 12:33:05 2020.
