 Gaussian 16, Revision A.03,

 ---------------------------------
 # opt=CalcAll B3LYP/6-31G* scf=qc
 ---------------------------------

 -------------------
 Title Card Required
 -------------------
 Symbolic Z-matrix:
 Charge =  0 Multiplicity = 1

 SCF Done:  E(RB3LYP) =  -2415.01353111     a.u. after    8 cycles
 SCF Done:  E(RB3LYP) =  -2415.03446445     a.u. after   17 cycles
 SCF Done:  E(RB3LYP) =  -2415.06731254     a.u. after   15 cycles
 SCF Done:  E(RB3LYP) =  -2415.07581198     a.u. after   17 cycles
 SCF Done:  E(RB3LYP) =  -2415.08373135     a.u. after   19 cycles
 SCF Done:  E(RB3LYP) =  -2415.08545592     a.u. after   15 cycles
 SCF Done:  E(RB3LYP) =  -2415.08585172     a.u. after   17 cycles
 SCF Done:  E(RB3LYP) =  -2415.08574492     a.u. after   11 cycles
 SCF Done:  E(RB3LYP) =  -2415.08621308     a.u. after   15 cycles
 SCF Done:  E(RB3LYP) =  -2415.08622306     a.u. after    7 cycles
 SCF Done:  E(RB3LYP) =  -2415.08624316     a.u. after    3 cycles
 SCF Done:  E(RB3LYP) =  -2415.08624284     a.u. after    5 cycles
 SCF Done:  E(RB3LYP) =  -2415.08624590     a.u. after    6 cycles
 SCF Done:  E(RB3LYP) =  -2415.08624677     a.u. after    5 cycles
 SCF Done:  E(RB3LYP) =  -2415.08624150     a.u. after    2 cycles
 SCF Done:  E(RB3LYP) =  -2415.08624384     a.u. after    2 cycles
 SCF Done:  E(RB3LYP) =  -2415.08624710     a.u. after    2 cycles
 SCF Done:  E(RB3LYP) =  -2415.08624916     a.u. after    2 cycles
 Optimization completed.
    -- Stationary point found.
 Normal termination of Gaussian 16 at Sun Aug 23 06:12:26 2020.

 ----------------------------------------------------------------------
 # freq B3LYP/6-31G* scf=qc volume NMR pop=NPA density=current Geom=All
 Check Guess=Read
 ----------------------------------------------------------------------

 Structure from the checkpoint file:  "phosphine_11_conf52.chk"
 -------------------
 Title Card Required
 -------------------
 Charge =  0 Multiplicity = 1

 SCF Done:  E(RB3LYP) =  -2415.08624916     a.u. after    1 cycles

      1  C    Isotropic =    67.5478   Anisotropy =   140.5694

      2  C    Isotropic =    60.2143   Anisotropy =   160.2814

      3  C    Isotropic =    58.7480   Anisotropy =   177.4393

      4  C    Isotropic =    61.8876   Anisotropy =   168.6165

      5  C    Isotropic =    67.5378   Anisotropy =   140.1182

      6  C    Isotropic =    51.5984   Anisotropy =   109.1307

      7  Cl   Isotropic =   720.9473   Anisotropy =   452.9304

      8  P    Isotropic =   364.8695   Anisotropy =    38.0302

      9  C    Isotropic =    58.7492   Anisotropy =   177.4437

     10  C    Isotropic =    60.2317   Anisotropy =   160.2947

     11  C    Isotropic =    67.5500   Anisotropy =   140.5717

     12  C    Isotropic =    51.5971   Anisotropy =   109.1397

     13  C    Isotropic =    67.5356   Anisotropy =   140.1176

     14  C    Isotropic =    61.8998   Anisotropy =   168.6143

     15  Cl   Isotropic =   720.9091   Anisotropy =   453.0252

     16  C    Isotropic =    58.7492   Anisotropy =   177.4257

     17  C    Isotropic =    60.2227   Anisotropy =   160.2791

     18  C    Isotropic =    67.5506   Anisotropy =   140.5921

     19  C    Isotropic =    51.5946   Anisotropy =   109.1559

     20  C    Isotropic =    67.5384   Anisotropy =   140.1058

     21  C    Isotropic =    61.8885   Anisotropy =   168.6120

     22  Cl   Isotropic =   720.9415   Anisotropy =   452.9619

     23  H    Isotropic =    25.0930   Anisotropy =     6.6318

     24  H    Isotropic =    24.7774   Anisotropy =     8.9694

     25  H    Isotropic =    25.5796   Anisotropy =    12.1113

     26  H    Isotropic =    25.2076   Anisotropy =     8.1418

     27  H    Isotropic =    24.7777   Anisotropy =     8.9708

     28  H    Isotropic =    25.0938   Anisotropy =     6.6317

     29  H    Isotropic =    25.2078   Anisotropy =     8.1440

     30  H    Isotropic =    25.5813   Anisotropy =    12.1158

     31  H    Isotropic =    24.7782   Anisotropy =     8.9674

     32  H    Isotropic =    25.0910   Anisotropy =     6.6363

     33  H    Isotropic =    25.2096   Anisotropy =     8.1398

     34  H    Isotropic =    25.5814   Anisotropy =    12.1108

  Exact polarizability: 280.595   0.015 280.573  -0.008   0.014 185.152
 Approx polarizability: 393.400   0.036 393.365  -0.017   0.032 343.247

                      1                      2                      3
                      A                      A                      A
 Frequencies --     23.1560                23.5040                29.8933
 Red. masses --      5.0565                 5.1827                 7.7502
 Frc consts  --      0.0016                 0.0017                 0.0041
 IR Inten    --      0.2598                 0.2445                 0.2053

                      4                      5                      6
                      A                      A                      A
 Frequencies --     30.0708                38.4312                40.5503
 Red. masses --      7.5227                 7.9163                 4.6285
 Frc consts  --      0.0040                 0.0069                 0.0045
 IR Inten    --      0.2189                 0.1919                 0.0359

                      7                      8                      9
                      A                      A                      A
 Frequencies --    109.3200               117.6329               117.7291
 Red. masses --      8.8651                 8.8308                 8.8340
 Frc consts  --      0.0624                 0.0720                 0.0721
 IR Inten    --      0.0248                 0.3512                 0.3495

                     10                     11                     12
                      A                      A                      A
 Frequencies --    181.0602               187.2690               187.6162
 Red. masses --     10.0372                 8.7792                 8.7964
 Frc consts  --      0.1939                 0.1814                 0.1824
 IR Inten    --      0.3330                 0.5720                 0.5700

                     13                     14                     15
                      A                      A                      A
 Frequencies --    264.0754               293.7255               293.7483
 Red. masses --      8.9776                 8.4074                 8.4171
 Frc consts  --      0.3689                 0.4274                 0.4279
 IR Inten    --      0.2160                 0.9081                 0.9082

                     16                     17                     18
                      A                      A                      A
 Frequencies --    310.8780               328.7340               328.8530
 Red. masses --      6.0414                 5.9799                 5.9776
 Frc consts  --      0.3440                 0.3807                 0.3809
 IR Inten    --      0.0032                 1.8772                 1.8726

                     19                     20                     21
                      A                      A                      A
 Frequencies --    384.0145               384.1371               414.7789
 Red. masses --      8.0405                 8.0272                 3.0454
 Frc consts  --      0.6986                 0.6979                 0.3087
 IR Inten    --     21.0100                20.9959                 0.0543

                     22                     23                     24
                      A                      A                      A
 Frequencies --    414.8379               416.8186               426.8968
 Red. masses --      3.0460                 3.2120                 6.6101
 Frc consts  --      0.3088                 0.3288                 0.7097
 IR Inten    --      0.0506                 0.1633                 2.9405

                     25                     26                     27
                      A                      A                      A
 Frequencies --    499.5548               509.4659               509.5517
 Red. masses --      5.5266                 3.6507                 3.6477
 Frc consts  --      0.8126                 0.5583                 0.5580
 IR Inten    --      6.8103                19.8443                19.8914

                     28                     29                     30
                      A                      A                      A
 Frequencies --    531.6684               548.8553               548.9529
 Red. masses --      4.5684                 7.4333                 7.4227
 Frc consts  --      0.7608                 1.3193                 1.3179
 IR Inten    --      9.8684                 5.4648                 5.4807

                     31                     32                     33
                      A                      A                      A
 Frequencies --    644.3665               644.3719               645.3213
 Red. masses --      7.1598                 7.1600                 7.1685
 Frc consts  --      1.7515                 1.7516                 1.7589
 IR Inten    --      0.0373                 0.0370                 0.0962

                     34                     35                     36
                      A                      A                      A
 Frequencies --    718.3055               718.3535               718.7698
 Red. masses --      4.5920                 4.5917                 4.6085
 Frc consts  --      1.3959                 1.3961                 1.4028
 IR Inten    --      1.6977                 1.6737                 0.2871

                     37                     38                     39
                      A                      A                      A
 Frequencies --    746.0850               751.6437               751.7075
 Red. masses --      7.2604                 7.2745                 7.2728
 Frc consts  --      2.3812                 2.4215                 2.4213
 IR Inten    --     14.6331                54.3306                54.4526

                     40                     41                     42
                      A                      A                      A
 Frequencies --    833.7616               834.2404               834.3182
 Red. masses --      1.4164                 1.4318                 1.4314
 Frc consts  --      0.5801                 0.5871                 0.5871
 IR Inten    --     23.3063                32.9352                32.8257

                     43                     44                     45
                      A                      A                      A
 Frequencies --    845.9623               846.0126               849.0517
 Red. masses --      1.2466                 1.2466                 1.2500
 Frc consts  --      0.5256                 0.5257                 0.5309
 IR Inten    --      0.6530                 0.6217                 0.3018

                     46                     47                     48
                      A                      A                      A
 Frequencies --    969.6589               969.7140               970.0786
 Red. masses --      1.2763                 1.2764                 1.2875
 Frc consts  --      0.7070                 0.7072                 0.7139
 IR Inten    --      0.1469                 0.1457                 0.2146

                     49                     50                     51
                      A                      A                      A
 Frequencies --    973.4828               973.5296               976.7860
 Red. masses --      1.3448                 1.3449                 1.3218
 Frc consts  --      0.7509                 0.7510                 0.7431
 IR Inten    --      0.0101                 0.0113                 0.4157

                     52                     53                     54
                      A                      A                      A
 Frequencies --   1027.9642              1028.0048              1029.6343
 Red. masses --      4.7541                 4.7675                 4.7010
 Frc consts  --      2.9599                 2.9684                 2.9363
 IR Inten    --     62.7086                62.7443                 5.1151

                     55                     56                     57
                      A                      A                      A
 Frequencies --   1097.7273              1097.7934              1101.4735
 Red. masses --      7.8969                 7.9240                 8.0786
 Frc consts  --      5.6065                 5.6264                 5.7748
 IR Inten    --     80.8603                81.4667                13.6765

                     58                     59                     60
                      A                      A                      A
 Frequencies --   1118.1834              1118.3929              1121.1309
 Red. masses --      2.1238                 2.1208                 2.1010
 Frc consts  --      1.5645                 1.5630                 1.5560
 IR Inten    --     33.2094                32.6639                 6.5051

                     61                     62                     63
                      A                      A                      A
 Frequencies --   1139.2956              1139.4548              1139.5934
 Red. masses --      1.4012                 1.4017                 1.4026
 Frc consts  --      1.0716                 1.0723                 1.0732
 IR Inten    --      0.5625                 1.6810                 1.9180

                     64                     65                     66
                      A                      A                      A
 Frequencies --   1219.0158              1219.4835              1220.8280
 Red. masses --      1.1567                 1.1573                 1.1519
 Frc consts  --      1.0127                 1.0140                 1.0115
 IR Inten    --      4.7792                 4.7528                 1.0033

                     67                     68                     69
                      A                      A                      A
 Frequencies --   1318.3398              1322.2666              1322.3752
 Red. masses --      6.8936                 7.5272                 7.7812
 Frc consts  --      7.0591                 7.7539                 8.0169
 IR Inten    --      1.3246                 2.6659                 2.6594

                     70                     71                     72
                      A                      A                      A
 Frequencies --   1337.1836              1337.5136              1337.8566
 Red. masses --      1.3415                 1.3385                 1.3381
 Frc consts  --      1.4133                 1.4108                 1.4111
 IR Inten    --      0.5098                 0.7453                 1.0382

                     73                     74                     75
                      A                      A                      A
 Frequencies --   1429.5561              1429.9670              1430.1410
 Red. masses --      2.6368                 2.6436                 2.6388
 Frc consts  --      3.1748                 3.1849                 3.1800
 IR Inten    --     19.0893                 6.4970                 6.3490

                     76                     77                     78
                      A                      A                      A
 Frequencies --   1527.0892              1527.1561              1527.2777
 Red. masses --      2.0803                 2.0908                 2.0774
 Frc consts  --      2.8583                 2.8730                 2.8550
 IR Inten    --     57.6853                25.9425                58.3629

                     79                     80                     81
                      A                      A                      A
 Frequencies --   1611.0509              1611.2863              1611.3168
 Red. masses --      6.6443                 6.6642                 6.6615
 Frc consts  --     10.1606                10.1939                10.1902
 IR Inten    --      3.8673                 3.8289                 3.7956

                     82                     83                     84
                      A                      A                      A
 Frequencies --   1633.4282              1633.4785              1634.5069
 Red. masses --      5.4307                 5.4244                 5.4920
 Frc consts  --      8.5370                 8.5276                 8.6449
 IR Inten    --     29.8003                29.6854                13.1200

                     85                     86                     87
                      A                      A                      A
 Frequencies --   3188.0823              3188.1230              3188.1748
 Red. masses --      1.0893                 1.0892                 1.0892
 Frc consts  --      6.5230                 6.5226                 6.5229
 IR Inten    --      7.2960                 2.5449                 2.8445

                     88                     89                     90
                      A                      A                      A
 Frequencies --   3205.6330              3205.8690              3206.4280
 Red. masses --      1.0879                 1.0878                 1.0879
 Frc consts  --      6.5865                 6.5872                 6.5898
 IR Inten    --      0.8555                 0.8617                 0.6615

                     91                     92                     93
                      A                      A                      A
 Frequencies --   3222.6181              3222.6470              3222.7792
 Red. masses --      1.0937                 1.0937                 1.0937
 Frc consts  --      6.6924                 6.6925                 6.6927
 IR Inten    --      2.2406                 2.7101                 9.6652

                     94                     95                     96
                      A                      A                      A
 Frequencies --   3223.6742              3223.7082              3223.9482
 Red. masses --      1.0939                 1.0939                 1.0941
 Frc consts  --      6.6979                 6.6981                 6.7003
 IR Inten    --      5.6672                 5.6240                 0.0783

 - Thermochemistry -
 -------------------
 Temperature   298.150 Kelvin.  Pressure   1.00000 Atm.
 Atom     1 has atomic number  6 and mass  12.00000

 Molecular mass:   363.97422 amu.
 Principal axes and moments of inertia in atomic units:
                           1         2         3
     Eigenvalues --  ******************************
           X            0.99963   0.02703  -0.00000
           Y           -0.02703   0.99963   0.00000
           Z            0.00000  -0.00000   1.00000
 This molecule is an asymmetric top.
 Rotational symmetry number  1.
 Warning -- assumption of classical behavior for rotation
           may cause significant error
 Rotational temperatures (Kelvin)      0.00723     0.00723     0.00405
 Rotational constants (GHZ):           0.15062     0.15061     0.08440
 Zero-point vibrational energy     643786.8 (Joules/Mol)
                                  153.86874 (Kcal/Mol)
 Warning -- explicit consideration of  30 degrees of freedom as
           vibrations may cause significant error
 Vibrational temperatures:     33.32    33.82    43.01    43.27    55.29
          (Kelvin)             58.34   157.29   169.25   169.39   260.51
                              269.44   269.94   379.95   422.61   422.64
                              447.28   472.97   473.15   552.51   552.69
                              596.77   596.86   599.71   614.21   718.75
                              733.01   733.13   764.95   789.68   789.82
                              927.10   927.11   928.47  1033.48  1033.55
                             1034.15  1073.45  1081.45  1081.54  1199.60
                             1200.29  1200.40  1217.15  1217.22  1221.60
                             1395.12  1395.20  1395.73  1400.62  1400.69
                             1405.38  1479.01  1479.07  1481.41  1579.38
                             1579.48  1584.77  1608.82  1609.12  1613.06
                             1639.19  1639.42  1639.62  1753.89  1754.56
                             1756.50  1896.80  1902.45  1902.60  1923.91
                             1924.38  1924.88  2056.81  2057.40  2057.65
                             2197.14  2197.24  2197.41  2317.94  2318.28
                             2318.33  2350.14  2350.21  2351.69  4586.94
                             4587.00  4587.07  4612.19  4612.53  4613.33
                             4636.63  4636.67  4636.86  4638.15  4638.20
                             4638.54

 Zero-point correction=                           0.245205 (Hartree/Particle)
 Thermal correction to Energy=                    0.264848
 Thermal correction to Enthalpy=                  0.265792
 Thermal correction to Gibbs Free Energy=         0.192399
 Sum of electronic and zero-point Energies=          -2414.841044
 Sum of electronic and thermal Energies=             -2414.821401
 Sum of electronic and thermal Enthalpies=           -2414.820457
 Sum of electronic and thermal Free Energies=        -2414.893850

                     E (Thermal)             CV                S
                      KCal/Mol        Cal/Mol-Kelvin    Cal/Mol-Kelvin
 Total                  166.195             74.118            154.468
 Electronic               0.000              0.000              0.000
 Translational            0.889              2.981             43.569
 Rotational               0.889              2.981             36.372
 Vibrational            164.417             68.157             74.528
 Vibration     1          0.593              1.985              6.343
 Vibration     2          0.593              1.985              6.314
 Vibration     3          0.594              1.984              5.836
 Vibration     4          0.594              1.984              5.825
 Vibration     5          0.594              1.982              5.338
 Vibration     6          0.594              1.981              5.232
 Vibration     7          0.606              1.942              3.281
 Vibration     8          0.608              1.935              3.139
 Vibration     9          0.608              1.935              3.137
 Vibration    10          0.630              1.865              2.317
 Vibration    11          0.632              1.857              2.255
 Vibration    12          0.632              1.857              2.251
 Vibration    13          0.671              1.739              1.635
 Vibration    14          0.689              1.685              1.452
 Vibration    15          0.689              1.685              1.452
 Vibration    16          0.700              1.653              1.358
 Vibration    17          0.712              1.618              1.266
 Vibration    18          0.712              1.618              1.266
 Vibration    19          0.753              1.504              1.023
 Vibration    20          0.753              1.504              1.023
 Vibration    21          0.778              1.438              0.910
 Vibration    22          0.778              1.438              0.910
 Vibration    23          0.780              1.434              0.903
 Vibration    24          0.789              1.412              0.869
 Vibration    25          0.855              1.251              0.659
 Vibration    26          0.865              1.229              0.635
 Vibration    27          0.865              1.229              0.635
 Vibration    28          0.887              1.180              0.583
 Vibration    29          0.904              1.142              0.547
 Vibration    30          0.904              1.142              0.546

                           ! Non-Optimized Parameters !
 Normal termination of Gaussian 16 at Sun Aug 23 06:28:47 2020.
 Gaussian 16:  ES64L-G16RevA.03 25-Dec-2016

 ----------------------------------------------------------------------
 # TD(NStates=10, Root=1) B3LYP/6-31G* scf=qc volume pop=NPA density=cu
 rrent Geom=AllCheck Guess=Read
 ----------------------------------------------------------------------

 Structure from the checkpoint file:  "phosphine_11_conf53.chk"
 -------------------
 Title Card Required
 -------------------
 Charge =  0 Multiplicity = 1

                         Standard orientation:
 ---------------------------------------------------------------------
 Center     Atomic      Atomic             Coordinates (Angstroms)
 Number     Number       Type             X           Y           Z
 ---------------------------------------------------------------------
      1          6           0       -3.632739   -1.793581    0.853371
      2          6           0       -2.397850   -1.409324    1.372718
      3          6           0       -1.612771   -0.429480    0.742365
      4          6           0       -2.113032    0.176352   -0.419861
      5          6           0       -3.353009   -0.188511   -0.946352
      6          6           0       -4.100737   -1.175126   -0.305781
      7         17           0       -5.662481   -1.640788   -0.963682
      8         15           0       -0.000049   -0.000070    1.547407
      9          6           0        1.178271   -1.181970    0.742449
     10          6           0        2.419858   -1.370962    1.372165
     11          6           0        3.370174   -2.248146    0.852782
     12          6           0        3.068195   -2.963582   -0.305716
     13          6           0        1.839430   -2.810341   -0.945618
     14          6           0        0.903370   -1.919007   -0.419133
     15         17           0        4.252466   -4.083121   -0.963629
     16          6           0        0.434476    1.611327    0.742527
     17          6           0       -0.021745    2.781153    1.372726
     18          6           0        0.262849    4.042705    0.853284
     19          6           0        1.032564    4.138751   -0.305797
     20          6           0        1.513337    2.997886   -0.946204
     21          6           0        1.209403    1.741628   -0.419622
     22         17           0        1.410039    5.724057   -0.963825
     23          1           0       -4.230425   -2.553712    1.345206
     24          1           0       -2.042985   -1.878114    2.287407
     25          1           0       -1.536058    0.946102   -0.923113
     26          1           0       -3.734558    0.286433   -1.844219
     27          1           0        2.648734   -0.828523    2.286346
     28          1           0        4.327692   -2.384896    1.344096
     29          1           0        1.618598   -3.378929   -1.842980
     30          1           0       -0.052081   -1.804975   -0.921917
     31          1           0       -0.605284    2.708250    2.287338
     32          1           0       -0.096768    4.940394    1.344977
     33          1           0        2.115514    3.090822   -1.844014
     34          1           0        1.587667    0.857052   -0.922733
 ---------------------------------------------------------------------

 SCF Done:  E(RB3LYP) =  -2415.08624916     a.u. after    1 cycles

 Excitation energies and oscillator strengths:

 Excited State   1:      Singlet-A      4.4059 eV  281.41 nm  f=0.1833  <S**2>=0.000
      93 -> 94         0.69574
 This state for optimization and/or second-order correction.
 Total Energy, E(TD-HF/TD-DFT) =  -2414.92433625
 Copying the excited state density for this state as the 1-particle RhoCI density.

 Excited State   2:      Singlet-A      4.4064 eV  281.38 nm  f=0.1836  <S**2>=0.000
      93 -> 95         0.69573

 Excited State   3:      Singlet-A      4.6120 eV  268.83 nm  f=0.0036  <S**2>=0.000
      89 -> 94        -0.11013
      90 -> 95        -0.11022
      93 -> 96         0.67971

 Excited State   4:      Singlet-A      4.9176 eV  252.12 nm  f=0.0001  <S**2>=0.000
      88 -> 94        -0.11830
      89 -> 95         0.11556
      89 -> 97         0.10106
      90 -> 94         0.11557
      93 -> 98         0.64414

 Excited State   5:      Singlet-A      4.9178 eV  252.11 nm  f=0.0001  <S**2>=0.000
      88 -> 95         0.11829
      89 -> 94        -0.11567
      90 -> 95         0.11572
      90 -> 97        -0.10121
      93 -> 99         0.64404

 Excited State   6:      Singlet-A      5.0222 eV  246.87 nm  f=0.0089  <S**2>=0.000
      91 -> 94         0.12134
      92 -> 95         0.12140
      93 -> 97         0.66881

 Excited State   7:      Singlet-A      5.2595 eV  235.73 nm  f=0.0017  <S**2>=0.000
      89 -> 94         0.13185
      90 -> 95         0.13120
      91 -> 94         0.21886
      91 -> 95        -0.38640
      91 -> 98        -0.12461
      92 -> 94         0.38741
      92 -> 95         0.21861
      92 -> 99         0.12413
      93 -> 96         0.10397

 Excited State   8:      Singlet-A      5.3615 eV  231.25 nm  f=0.0050  <S**2>=0.000
      88 -> 94        -0.19126
      89 -> 95         0.16728
      89 -> 97         0.11214
      90 -> 94         0.16747
      91 -> 95         0.14467
      91 -> 96         0.39059
      91 -> 99         0.15180
      92 -> 94         0.14519
      92 -> 96        -0.20742
      92 -> 98        -0.15231
      93 -> 98        -0.22881

 Excited State   9:      Singlet-A      5.3617 eV  231.24 nm  f=0.0050  <S**2>=0.000
      88 -> 95        -0.19090
      89 -> 94         0.16744
      90 -> 95        -0.16724
      90 -> 97         0.11213
      91 -> 94         0.14475
      91 -> 96         0.20714
      91 -> 98        -0.15193
      92 -> 95        -0.14522
      92 -> 96         0.39114
      92 -> 99        -0.15185
      93 -> 99         0.22902

 Excited State  10:      Singlet-A      5.4214 eV  228.69 nm  f=0.1615  <S**2>=0.000
      91 -> 94         0.43225
      91 -> 95        -0.16893
      92 -> 94        -0.16872
      92 -> 95        -0.43181
      92 -> 96        -0.13797

 The electronic state is 1-A.
 Alpha  occ. eigenvalues -- -101.55492-101.55492-101.55492 -77.10094 -10.26329
 Alpha  occ. eigenvalues --  -10.26328 -10.26328 -10.21418 -10.21417 -10.21417
 Alpha  occ. eigenvalues --  -10.21367 -10.21367 -10.21366 -10.21346 -10.21346
 Alpha  occ. eigenvalues --  -10.21345 -10.21312 -10.21312 -10.21312 -10.21248
 Alpha  occ. eigenvalues --  -10.21248 -10.21247  -9.47124  -9.47124  -9.47124
 Alpha  occ. eigenvalues --   -7.23519  -7.23519  -7.23518  -7.22555  -7.22554
 Alpha  occ. eigenvalues --   -7.22554  -7.22517  -7.22517  -7.22516  -6.56809
 Alpha  occ. eigenvalues --   -4.73069  -4.73069  -4.72564  -0.89964  -0.89791
 Alpha  occ. eigenvalues --   -0.89790  -0.85153  -0.84237  -0.84236  -0.76898
 Alpha  occ. eigenvalues --   -0.76780  -0.76780  -0.76742  -0.73906  -0.73906
 Alpha  occ. eigenvalues --   -0.65058  -0.63150  -0.62986  -0.62986  -0.60496
 Alpha  occ. eigenvalues --   -0.60496  -0.57615  -0.52431  -0.52431  -0.49747
 Alpha  occ. eigenvalues --   -0.48088  -0.47998  -0.47998  -0.47167  -0.47167
 Alpha  occ. eigenvalues --   -0.46321  -0.44340  -0.44246  -0.44245  -0.42725
 Alpha  occ. eigenvalues --   -0.42724  -0.40319  -0.40238  -0.40237  -0.39580
 Alpha  occ. eigenvalues --   -0.37219  -0.37219  -0.37129  -0.35189  -0.35188
 Alpha  occ. eigenvalues --   -0.34134  -0.33460  -0.33459  -0.31867  -0.31862
 Alpha  occ. eigenvalues --   -0.31862  -0.27683  -0.27413  -0.27142  -0.27142
 Alpha  occ. eigenvalues --   -0.25829  -0.25828  -0.22677
 Alpha virt. eigenvalues --   -0.03957  -0.03956  -0.03032  -0.01964  -0.01787
 Alpha virt. eigenvalues --   -0.01785   0.02243   0.02243   0.02402   0.05592
 Alpha virt. eigenvalues --    0.05594   0.10344   0.12154   0.12345   0.12345

 Mulliken charges:
               1
     1  C   -0.119626
     2  C   -0.174282
     3  C   -0.129189
     4  C   -0.166431
     5  C   -0.121326
     6  C   -0.098471
     7  Cl  -0.040005
     8  P    0.446535
     9  C   -0.082047
    10  C   -0.158935
    11  C   -0.114734
    12  C   -0.064130
    13  C   -0.117686
    14  C   -0.147398
    15  Cl   0.015529
    16  C   -0.104465
    17  C   -0.156049
    18  C   -0.125282
    19  C   -0.088348
    20  C   -0.113339
    21  C   -0.170346
    22  Cl  -0.024763
    23  H    0.145457
    24  H    0.128699
    25  H    0.147580
    26  H    0.149519
    27  H    0.160657
    28  H    0.170030
    29  H    0.174057
    30  H    0.185615
    31  H    0.143427
    32  H    0.153660
    33  H    0.155472
    34  H    0.140616
 Sum of Mulliken charges =  -0.00000

 Dipole moment (field-independent basis, Debye):
    X=              3.6598    Y=             -2.0236    Z=              1.9732  Tot=              4.6241
 Quadrupole moment (field-independent basis, Debye-Ang):
   XX=           -169.6683   YY=           -165.4457   ZZ=           -145.0325
   XY=             -8.6871   XZ=             -0.3019   YZ=              0.9803

 Summary of Natural Population Analysis:

                                       Natural Population
                Natural  -----------------------------------------------
    Atom  No    Charge         Core      Valence    Rydberg      Total
 -----------------------------------------------------------------------
      C    1   -0.25315      1.99894     4.23811    0.01610     6.25315
      C    2   -0.22554      1.99901     4.21036    0.01616     6.22554
      C    3   -0.47928      1.99887     4.45441    0.02599     6.47928
      C    4   -0.23246      1.99899     4.21603    0.01744     6.23246
      C    5   -0.24928      1.99893     4.23432    0.01603     6.24928
      C    6   -0.08683      1.99854     4.06605    0.02224     6.08683
     Cl    7   -0.01363      9.99967     6.99352    0.02044    17.01363
      P    8    1.21205      9.99758     3.74052    0.04985    13.78795
      C    9   -0.38101      1.99891     4.35700    0.02510     6.38101
      C   10   -0.19548      1.99902     4.18126    0.01521     6.19548
      C   11   -0.24380      1.99893     4.22958    0.01529     6.24380
      C   12   -0.01645      1.99855     3.99562    0.02228     6.01645
      C   13   -0.24276      1.99892     4.22850    0.01534     6.24276
      C   14   -0.19211      1.99900     4.17714    0.01597     6.19211
     Cl   15    0.02802      9.99967     6.95301    0.01930    16.97198
      C   16   -0.43471      1.99887     4.41172    0.02411     6.43471
      C   17   -0.19562      1.99901     4.18106    0.01555     6.19562
      C   18   -0.26339      1.99894     4.24797    0.01649     6.26339
      C   19   -0.06635      1.99854     4.04558    0.02222     6.06635
      C   20   -0.23509      1.99893     4.22076    0.01540     6.23509
      C   21   -0.24452      1.99899     4.22822    0.01731     6.24452
     Cl   22   -0.00247      9.99967     6.98268    0.02012    17.00247
      H   23    0.24947      0.00000     0.74945    0.00108     0.75053
      H   24    0.23238      0.00000     0.76672    0.00091     0.76762
      H   25    0.24587      0.00000     0.75261    0.00152     0.75413
      H   26    0.25213      0.00000     0.74682    0.00105     0.74787
      H   27    0.24947      0.00000     0.74938    0.00115     0.75053
      H   28    0.26103      0.00000     0.73791    0.00106     0.73897
      H   29    0.26356      0.00000     0.73540    0.00105     0.73644
      H   30    0.26747      0.00000     0.73133    0.00120     0.73253
      H   31    0.24139      0.00000     0.75748    0.00113     0.75861
      H   32    0.25399      0.00000     0.74497    0.00103     0.74601
      H   33    0.25466      0.00000     0.74428    0.00106     0.74534
      H   34    0.24242      0.00000     0.75626    0.00132     0.75758
 =======================================================================
   * Total *    0.00000     75.97648   109.56601    0.45750   186.00000

 Normal termination of Gaussian 16 at Sun Aug 23 06:49:32 2020.
