 Gaussian 16, Revision A.03,

 ---------------------------------
 # opt=CalcAll B3LYP/6-31G* scf=qc
 ---------------------------------

 -------------------
 Title Card Required
 -------------------
 Symbolic Z-matrix:
 Charge =  0 Multiplicity = 1

 SCF Done:  E(RB3LYP) =  -2415.05946768     a.u. after    8 cycles
 SCF Done:  E(RB3LYP) =  -2415.07517192     a.u. after   17 cycles
 SCF Done:  E(RB3LYP) =  -2415.07795276     a.u. after   15 cycles
 SCF Done:  E(RB3LYP) =  -2415.08521397     a.u. after   19 cycles
 SCF Done:  E(RB3LYP) =  -2415.08613087     a.u. after   15 cycles
 SCF Done:  E(RB3LYP) =  -2415.08623188     a.u. after   11 cycles
 SCF Done:  E(RB3LYP) =  -2415.08624095     a.u. after    7 cycles
 SCF Done:  E(RB3LYP) =  -2415.08624351     a.u. after    5 cycles
 SCF Done:  E(RB3LYP) =  -2415.08624293     a.u. after    2 cycles
 SCF Done:  E(RB3LYP) =  -2415.08624472     a.u. after    2 cycles
 SCF Done:  E(RB3LYP) =  -2415.08623925     a.u. after    2 cycles
 SCF Done:  E(RB3LYP) =  -2415.08624621     a.u. after    3 cycles
 SCF Done:  E(RB3LYP) =  -2415.08624773     a.u. after    2 cycles
 Optimization completed.
    -- Stationary point found.
 Normal termination of Gaussian 16 at Sun Aug 23 02:52:50 2020.

 ----------------------------------------------------------------------
 # freq B3LYP/6-31G* scf=qc volume NMR pop=NPA density=current Geom=All
 Check Guess=Read
 ----------------------------------------------------------------------

 Structure from the checkpoint file:  "phosphine_11_conf62.chk"
 -------------------
 Title Card Required
 -------------------
 Charge =  0 Multiplicity = 1

 SCF Done:  E(RB3LYP) =  -2415.08624773     a.u. after    1 cycles

      1  C    Isotropic =    67.5647   Anisotropy =   140.6162

      2  C    Isotropic =    60.2050   Anisotropy =   160.2595

      3  C    Isotropic =    58.7366   Anisotropy =   177.3962

      4  C    Isotropic =    61.8734   Anisotropy =   168.5825

      5  C    Isotropic =    67.5353   Anisotropy =   140.1010

      6  C    Isotropic =    51.5984   Anisotropy =   109.1535

      7  Cl   Isotropic =   721.0125   Anisotropy =   452.8538

      8  P    Isotropic =   364.8618   Anisotropy =    37.4690

      9  C    Isotropic =    58.7379   Anisotropy =   177.4261

     10  C    Isotropic =    61.8939   Anisotropy =   168.5932

     11  C    Isotropic =    67.5388   Anisotropy =   140.1157

     12  C    Isotropic =    51.6063   Anisotropy =   109.1317

     13  C    Isotropic =    67.5536   Anisotropy =   140.5752

     14  C    Isotropic =    60.2280   Anisotropy =   160.2796

     15  Cl   Isotropic =   720.9847   Anisotropy =   452.9161

     16  C    Isotropic =    58.7354   Anisotropy =   177.4334

     17  C    Isotropic =    60.2279   Anisotropy =   160.2658

     18  C    Isotropic =    67.5579   Anisotropy =   140.5836

     19  C    Isotropic =    51.5994   Anisotropy =   109.1537

     20  C    Isotropic =    67.5386   Anisotropy =   140.1123

     21  C    Isotropic =    61.8929   Anisotropy =   168.6032

     22  Cl   Isotropic =   720.9492   Anisotropy =   452.9663

     23  H    Isotropic =    25.0896   Anisotropy =     6.6370

     24  H    Isotropic =    24.7796   Anisotropy =     8.9655

     25  H    Isotropic =    25.5841   Anisotropy =    12.1063

     26  H    Isotropic =    25.2094   Anisotropy =     8.1401

     27  H    Isotropic =    25.5831   Anisotropy =    12.1155

     28  H    Isotropic =    25.2078   Anisotropy =     8.1425

     29  H    Isotropic =    25.0937   Anisotropy =     6.6324

     30  H    Isotropic =    24.7797   Anisotropy =     8.9711

     31  H    Isotropic =    24.7796   Anisotropy =     8.9666

     32  H    Isotropic =    25.0936   Anisotropy =     6.6323

     33  H    Isotropic =    25.2083   Anisotropy =     8.1435

     34  H    Isotropic =    25.5834   Anisotropy =    12.1087

  Exact polarizability: 280.593   0.027 280.569   0.023  -0.015 185.153
 Approx polarizability: 393.390   0.067 393.368   0.050  -0.032 343.252

                      1                      2                      3
                      A                      A                      A
 Frequencies --     22.2621                23.9511                29.5997
 Red. masses --      4.6981                 5.3566                 8.8006
 Frc consts  --      0.0014                 0.0018                 0.0045
 IR Inten    --      0.2799                 0.2435                 0.1772

                      4                      5                      6
                      A                      A                      A
 Frequencies --     30.1079                38.5707                40.4219
 Red. masses --      7.1752                 8.3329                 4.4962
 Frc consts  --      0.0038                 0.0073                 0.0043
 IR Inten    --      0.2283                 0.1974                 0.0301

                      7                      8                      9
                      A                      A                      A
 Frequencies --    109.4097               117.6880               117.8312
 Red. masses --      8.8661                 8.8331                 8.8330
 Frc consts  --      0.0625                 0.0721                 0.0723
 IR Inten    --      0.0249                 0.3504                 0.3509

                     10                     11                     12
                      A                      A                      A
 Frequencies --    181.0932               187.4905               187.6932
 Red. masses --     10.0391                 8.7902                 8.7968
 Frc consts  --      0.1940                 0.1821                 0.1826
 IR Inten    --      0.3326                 0.5704                 0.5708

                     13                     14                     15
                      A                      A                      A
 Frequencies --    264.0520               293.7169               293.8196
 Red. masses --      8.9785                 8.4137                 8.4136
 Frc consts  --      0.3688                 0.4277                 0.4279
 IR Inten    --      0.2166                 0.9078                 0.9148

                     16                     17                     18
                      A                      A                      A
 Frequencies --    310.9548               328.7579               328.8740
 Red. masses --      6.0416                 5.9814                 5.9823
 Frc consts  --      0.3442                 0.3809                 0.3812
 IR Inten    --      0.0033                 1.8834                 1.8851

                     19                     20                     21
                      A                      A                      A
 Frequencies --    384.0665               384.1349               414.7197
 Red. masses --      8.0248                 8.0226                 3.0452
 Frc consts  --      0.6974                 0.6975                 0.3086
 IR Inten    --     20.9884                20.9959                 0.0539

                     22                     23                     24
                      A                      A                      A
 Frequencies --    414.8756               416.8323               427.0275
 Red. masses --      3.0477                 3.2127                 6.6125
 Frc consts  --      0.3091                 0.3289                 0.7104
 IR Inten    --      0.0492                 0.1631                 2.9387

                     25                     26                     27
                      A                      A                      A
 Frequencies --    499.5317               509.4578               509.5976
 Red. masses --      5.5204                 3.6473                 3.6535
 Frc consts  --      0.8116                 0.5577                 0.5590
 IR Inten    --      6.8311                19.9167                19.8117

                     28                     29                     30
                      A                      A                      A
 Frequencies --    531.7212               548.8570               548.9006
 Red. masses --      4.5741                 7.4337                 7.4133
 Frc consts  --      0.7619                 1.3194                 1.3160
 IR Inten    --      9.8535                 5.4643                 5.4922

                     31                     32                     33
                      A                      A                      A
 Frequencies --    644.3616               644.3946               645.3203
 Red. masses --      7.1601                 7.1602                 7.1685
 Frc consts  --      1.7516                 1.7518                 1.7589
 IR Inten    --      0.0369                 0.0368                 0.0959

                     34                     35                     36
                      A                      A                      A
 Frequencies --    718.2651               718.3946               718.7457
 Red. masses --      4.5888                 4.5956                 4.6100
 Frc consts  --      1.3948                 1.3974                 1.4031
 IR Inten    --      1.6528                 1.6843                 0.3022

                     37                     38                     39
                      A                      A                      A
 Frequencies --    746.1436               751.6364               751.6673
 Red. masses --      7.2604                 7.2722                 7.2741
 Frc consts  --      2.3815                 2.4207                 2.4215
 IR Inten    --     14.6349                54.4083                54.3169

                     40                     41                     42
                      A                      A                      A
 Frequencies --    833.8317               834.2272               834.3336
 Red. masses --      1.4160                 1.4319                 1.4314
 Frc consts  --      0.5801                 0.5871                 0.5871
 IR Inten    --     23.3128                32.9275                32.8802

                     43                     44                     45
                      A                      A                      A
 Frequencies --    845.9433               846.0897               849.0928
 Red. masses --      1.2466                 1.2464                 1.2501
 Frc consts  --      0.5256                 0.5257                 0.5310
 IR Inten    --      0.6299                 0.6083                 0.3122

                     46                     47                     48
                      A                      A                      A
 Frequencies --    969.6250               969.7540               970.1431
 Red. masses --      1.2758                 1.2767                 1.2878
 Frc consts  --      0.7067                 0.7074                 0.7141
 IR Inten    --      0.1530                 0.1462                 0.2103

                     49                     50                     51
                      A                      A                      A
 Frequencies --    973.4149               973.6577               976.8636
 Red. masses --      1.3459                 1.3439                 1.3211
 Frc consts  --      0.7514                 0.7506                 0.7427
 IR Inten    --      0.0107                 0.0124                 0.4183

                     52                     53                     54
                      A                      A                      A
 Frequencies --   1027.9876              1028.0130              1029.6303
 Red. masses --      4.7597                 4.7640                 4.6999
 Frc consts  --      2.9635                 2.9663                 2.9356
 IR Inten    --     62.7095                62.7023                 5.1141

                     55                     56                     57
                      A                      A                      A
 Frequencies --   1097.7583              1097.8146              1101.5416
 Red. masses --      7.8977                 7.9240                 8.0732
 Frc consts  --      5.6074                 5.6267                 5.7716
 IR Inten    --     81.0712                81.4687                13.7135

                     58                     59                     60
                      A                      A                      A
 Frequencies --   1118.2144              1118.3719              1121.2652
 Red. masses --      2.1228                 2.1211                 2.1021
 Frc consts  --      1.5639                 1.5631                 1.5571
 IR Inten    --     33.1004                32.7113                 6.3925

                     61                     62                     63
                      A                      A                      A
 Frequencies --   1139.3231              1139.4593              1139.5784
 Red. masses --      1.4016                 1.4014                 1.4022
 Frc consts  --      1.0719                 1.0720                 1.0729
 IR Inten    --      0.7086                 0.1601                 3.2653

                     64                     65                     66
                      A                      A                      A
 Frequencies --   1219.1761              1219.4092              1220.8838
 Red. masses --      1.1570                 1.1573                 1.1518
 Frc consts  --      1.0133                 1.0139                 1.0115
 IR Inten    --      4.7874                 4.8171                 0.9257

                     67                     68                     69
                      A                      A                      A
 Frequencies --   1318.3335              1322.2281              1322.3524
 Red. masses --      6.9308                 7.5826                 7.7089
 Frc consts  --      7.0972                 7.8105                 7.9421
 IR Inten    --      1.3143                 2.6694                 2.6657

                     70                     71                     72
                      A                      A                      A
 Frequencies --   1337.2561              1337.5165              1337.7657
 Red. masses --      1.3384                 1.3294                 1.3493
 Frc consts  --      1.4101                 1.4012                 1.4227
 IR Inten    --      0.4829                 0.3254                 1.4781

                     73                     74                     75
                      A                      A                      A
 Frequencies --   1429.5652              1429.9764              1430.0792
 Red. masses --      2.6354                 2.6421                 2.6413
 Frc consts  --      3.1733                 3.1832                 3.1826
 IR Inten    --     19.1711                 6.5841                 6.1843

                     76                     77                     78
                      A                      A                      A
 Frequencies --   1527.1157              1527.1555              1527.1737
 Red. masses --      2.0891                 2.0831                 2.0763
 Frc consts  --      2.8705                 2.8624                 2.8531
 IR Inten    --     32.4904                45.3850                64.1151

                     79                     80                     81
                      A                      A                      A
 Frequencies --   1611.0263              1611.2594              1611.2959
 Red. masses --      6.6436                 6.6626                 6.6621
 Frc consts  --     10.1593                10.1911                10.1909
 IR Inten    --      3.8734                 3.8019                 3.8139

                     82                     83                     84
                      A                      A                      A
 Frequencies --   1633.4348              1633.4472              1634.4863
 Red. masses --      5.4283                 5.4270                 5.4931
 Frc consts  --      8.5334                 8.5314                 8.6463
 IR Inten    --     29.7731                29.7136                13.1173

                     85                     86                     87
                      A                      A                      A
 Frequencies --   3188.0497              3188.0930              3188.1512
 Red. masses --      1.0893                 1.0892                 1.0892
 Frc consts  --      6.5228                 6.5225                 6.5228
 IR Inten    --      6.7394                 2.9309                 3.0191

                     88                     89                     90
                      A                      A                      A
 Frequencies --   3205.7512              3205.9406              3206.4869
 Red. masses --      1.0878                 1.0878                 1.0879
 Frc consts  --      6.5867                 6.5874                 6.5900
 IR Inten    --      0.8650                 0.8625                 0.6458

                     91                     92                     93
                      A                      A                      A
 Frequencies --   3222.6005              3222.6350              3222.7638
 Red. masses --      1.0938                 1.0938                 1.0937
 Frc consts  --      6.6925                 6.6926                 6.6927
 IR Inten    --      2.3772                 2.2687                 9.9556

                     94                     95                     96
                      A                      A                      A
 Frequencies --   3223.6864              3223.7216              3223.9537
 Red. masses --      1.0939                 1.0939                 1.0941
 Frc consts  --      6.6978                 6.6980                 6.7002
 IR Inten    --      5.6623                 5.6749                 0.0454

 - Thermochemistry -
 -------------------
 Temperature   298.150 Kelvin.  Pressure   1.00000 Atm.
 Atom     1 has atomic number  6 and mass  12.00000

 Molecular mass:   363.97422 amu.
 Principal axes and moments of inertia in atomic units:
                           1         2         3
     Eigenvalues --  ******************************
           X            0.99979   0.02063   0.00000
           Y           -0.02063   0.99979  -0.00000
           Z           -0.00000   0.00000   1.00000
 This molecule is an asymmetric top.
 Rotational symmetry number  1.
 Warning -- assumption of classical behavior for rotation
           may cause significant error
 Rotational temperatures (Kelvin)      0.00723     0.00723     0.00405
 Rotational constants (GHZ):           0.15063     0.15060     0.08440
 Zero-point vibrational energy     643792.2 (Joules/Mol)
                                  153.87003 (Kcal/Mol)
 Warning -- explicit consideration of  30 degrees of freedom as
           vibrations may cause significant error
 Vibrational temperatures:     32.03    34.46    42.59    43.32    55.49
          (Kelvin)             58.16   157.42   169.33   169.53   260.55
                              269.76   270.05   379.91   422.59   422.74
                              447.39   473.01   473.18   552.59   552.68
                              596.69   596.91   599.73   614.40   718.71
                              733.00   733.20   765.03   789.68   789.75
                              927.09   927.14   928.47  1033.42  1033.61
                             1034.11  1073.53  1081.44  1081.48  1199.70
                             1200.27  1200.42  1217.12  1217.33  1221.66
                             1395.07  1395.26  1395.82  1400.53  1400.88
                             1405.49  1479.04  1479.08  1481.41  1579.43
                             1579.51  1584.87  1608.86  1609.09  1613.25
                             1639.23  1639.43  1639.60  1754.12  1754.46
                             1756.58  1896.79  1902.39  1902.57  1924.01
                             1924.39  1924.75  2056.83  2057.42  2057.57
                             2197.18  2197.24  2197.26  2317.91  2318.24
                             2318.30  2350.15  2350.17  2351.66  4586.89
                             4586.95  4587.04  4612.36  4612.63  4613.42
                             4636.60  4636.65  4636.84  4638.17  4638.22
                             4638.55

 Zero-point correction=                           0.245207 (Hartree/Particle)
 Thermal correction to Energy=                    0.264850
 Thermal correction to Enthalpy=                  0.265794
 Thermal correction to Gibbs Free Energy=         0.192379
 Sum of electronic and zero-point Energies=          -2414.841040
 Sum of electronic and thermal Energies=             -2414.821397
 Sum of electronic and thermal Enthalpies=           -2414.820453
 Sum of electronic and thermal Free Energies=        -2414.893869

                     E (Thermal)             CV                S
                      KCal/Mol        Cal/Mol-Kelvin    Cal/Mol-Kelvin
 Total                  166.196             74.116            154.516
 Electronic               0.000              0.000              0.000
 Translational            0.889              2.981             43.569
 Rotational               0.889              2.981             36.372
 Vibrational            164.419             68.155             74.575
 Vibration     1          0.593              1.985              6.421
 Vibration     2          0.593              1.985              6.276
 Vibration     3          0.593              1.984              5.856
 Vibration     4          0.594              1.984              5.822
 Vibration     5          0.594              1.981              5.331
 Vibration     6          0.594              1.981              5.238
 Vibration     7          0.606              1.942              3.279
 Vibration     8          0.608              1.935              3.138
 Vibration     9          0.608              1.935              3.136
 Vibration    10          0.630              1.865              2.317
 Vibration    11          0.632              1.857              2.252
 Vibration    12          0.632              1.857              2.250
 Vibration    13          0.671              1.739              1.635
 Vibration    14          0.689              1.685              1.452
 Vibration    15          0.689              1.685              1.452
 Vibration    16          0.700              1.653              1.357
 Vibration    17          0.712              1.618              1.266
 Vibration    18          0.712              1.618              1.266
 Vibration    19          0.753              1.504              1.023
 Vibration    20          0.753              1.504              1.023
 Vibration    21          0.778              1.438              0.910
 Vibration    22          0.778              1.438              0.910
 Vibration    23          0.780              1.434              0.903
 Vibration    24          0.789              1.411              0.868
 Vibration    25          0.855              1.251              0.659
 Vibration    26          0.865              1.229              0.635
 Vibration    27          0.865              1.229              0.635
 Vibration    28          0.887              1.180              0.583
 Vibration    29          0.904              1.142              0.547
 Vibration    30          0.904              1.142              0.546

                           ! Non-Optimized Parameters !
 Normal termination of Gaussian 16 at Sun Aug 23 03:08:08 2020.
 Gaussian 16:  ES64L-G16RevA.03 25-Dec-2016

 ----------------------------------------------------------------------
 # TD(NStates=10, Root=1) B3LYP/6-31G* scf=qc volume pop=NPA density=cu
 rrent Geom=AllCheck Guess=Read
 ----------------------------------------------------------------------

 Structure from the checkpoint file:  "phosphine_11_conf63.chk"
 -------------------
 Title Card Required
 -------------------
 Charge =  0 Multiplicity = 1

                         Standard orientation:
 ---------------------------------------------------------------------
 Center     Atomic      Atomic             Coordinates (Angstroms)
 Number     Number       Type             X           Y           Z
 ---------------------------------------------------------------------
      1          6           0        2.927191    2.801060    0.853611
      2          6           0        1.864571    2.063914    1.373026
      3          6           0        1.409436    0.893863    0.742462
      4          6           0        2.068118    0.466320   -0.420049
      5          6           0        3.141398    1.186491   -0.946614
      6          6           0        3.558871    2.351802   -0.305825
      7         17           0        4.908824    3.264701   -0.963815
      8         15           0       -0.000078    0.000230    1.547433
      9          6           0       -1.478843    0.773882    0.742454
     10          6           0       -1.437889    1.559814   -0.418877
     11          6           0       -2.598418    2.128908   -0.945359
     12          6           0       -3.816552    1.905726   -0.305708
     13          6           0       -3.889815    1.132309    0.852576
     14          6           0       -2.719945    0.580991    1.371953
     15         17           0       -5.282380    2.617915   -0.963638
     16          6           0        0.069240   -1.667278    0.742512
     17          6           0        0.855711   -2.646110    1.372703
     18          6           0        0.963104   -3.934904    0.853274
     19          6           0        0.257742   -4.257687   -0.305787
     20          6           0       -0.543450   -3.313860   -0.946184
     21          6           0       -0.630793   -2.024301   -0.419621
     22         17           0        0.373749   -5.883187   -0.963805
     23          1           0        3.269443    3.705352    1.345598
     24          1           0        1.385637    2.404417    2.287917
     25          1           0        1.748507   -0.440931   -0.923463
     26          1           0        3.647634    0.848122   -1.844695
     27          1           0       -0.492235    1.738252   -0.921443
     28          1           0       -2.558476    2.737839   -1.842535
     29          1           0       -4.844250    0.974963    1.343722
     30          1           0       -2.775424   -0.005374    2.285983
     31          1           0        1.390425   -2.401347    2.287320
     32          1           0        1.575714   -4.683148    1.344975
     33          1           0       -1.089933   -3.583346   -1.843987
     34          1           0       -1.257229   -1.294191   -0.922803
 ---------------------------------------------------------------------

 SCF Done:  E(RB3LYP) =  -2415.08624773     a.u. after    1 cycles

 Excitation energies and oscillator strengths:

 Excited State   1:      Singlet-A      4.4058 eV  281.41 nm  f=0.1833  <S**2>=0.000
      93 -> 94         0.69578
 This state for optimization and/or second-order correction.
 Total Energy, E(TD-HF/TD-DFT) =  -2414.92433849
 Copying the excited state density for this state as the 1-particle RhoCI density.

 Excited State   2:      Singlet-A      4.4065 eV  281.37 nm  f=0.1837  <S**2>=0.000
      93 -> 95         0.69577

 Excited State   3:      Singlet-A      4.6120 eV  268.83 nm  f=0.0036  <S**2>=0.000
      89 -> 94        -0.11010
      90 -> 95         0.11025
      93 -> 96         0.67971

 Excited State   4:      Singlet-A      4.9176 eV  252.13 nm  f=0.0001  <S**2>=0.000
      88 -> 94         0.11526
      93 -> 98         0.64472

 Excited State   5:      Singlet-A      4.9178 eV  252.11 nm  f=0.0001  <S**2>=0.000
      88 -> 95         0.11523
      93 -> 99         0.64458

 Excited State   6:      Singlet-A      5.0222 eV  246.87 nm  f=0.0090  <S**2>=0.000
      91 -> 94         0.11649
      92 -> 95         0.11662
      93 -> 97         0.66880

 Excited State   7:      Singlet-A      5.2595 eV  235.73 nm  f=0.0017  <S**2>=0.000
      89 -> 94        -0.13204
      90 -> 95         0.13103
      91 -> 94         0.24446
      91 -> 95        -0.37044
      91 -> 98         0.12563
      92 -> 94         0.37207
      92 -> 95         0.24424
      92 -> 99         0.12490
      93 -> 96        -0.10396

 Excited State   8:      Singlet-A      5.3614 eV  231.25 nm  f=0.0051  <S**2>=0.000
      88 -> 94         0.19118
      89 -> 94         0.16629
      89 -> 97         0.11229
      90 -> 95         0.16599
      91 -> 95         0.13959
      91 -> 96         0.37949
      91 -> 99         0.14576
      92 -> 94         0.14127
      92 -> 96        -0.22701
      92 -> 98         0.14657
      93 -> 98        -0.22657

 Excited State   9:      Singlet-A      5.3617 eV  231.24 nm  f=0.0050  <S**2>=0.000
      88 -> 95         0.19056
      89 -> 95        -0.16603
      90 -> 94         0.16601
      90 -> 97        -0.11231
      91 -> 94         0.13948
      91 -> 96         0.22646
      91 -> 98         0.14589
      92 -> 95        -0.14033
      92 -> 96         0.38036
      92 -> 99        -0.14591
      93 -> 99        -0.22687

 Excited State  10:      Singlet-A      5.4213 eV  228.70 nm  f=0.1614  <S**2>=0.000
      91 -> 94         0.46301
      92 -> 95        -0.46298
      92 -> 96        -0.13588

 The electronic state is 1-A.
 Alpha  occ. eigenvalues -- -101.55493-101.55492-101.55492 -77.10094 -10.26329
 Alpha  occ. eigenvalues --  -10.26328 -10.26327 -10.21418 -10.21417 -10.21417
 Alpha  occ. eigenvalues --  -10.21367 -10.21367 -10.21366 -10.21346 -10.21346
 Alpha  occ. eigenvalues --  -10.21345 -10.21312 -10.21312 -10.21312 -10.21248
 Alpha  occ. eigenvalues --  -10.21248 -10.21247  -9.47125  -9.47124  -9.47123
 Alpha  occ. eigenvalues --   -7.23519  -7.23519  -7.23518  -7.22555  -7.22554
 Alpha  occ. eigenvalues --   -7.22554  -7.22517  -7.22517  -7.22516  -6.56809
 Alpha  occ. eigenvalues --   -4.73069  -4.73069  -4.72564  -0.89964  -0.89791
 Alpha  occ. eigenvalues --   -0.89790  -0.85153  -0.84237  -0.84236  -0.76898
 Alpha  occ. eigenvalues --   -0.76780  -0.76780  -0.76742  -0.73906  -0.73906
 Alpha  occ. eigenvalues --   -0.65058  -0.63150  -0.62986  -0.62986  -0.60496
 Alpha  occ. eigenvalues --   -0.60496  -0.57615  -0.52431  -0.52431  -0.49746
 Alpha  occ. eigenvalues --   -0.48088  -0.47998  -0.47998  -0.47167  -0.47167
 Alpha  occ. eigenvalues --   -0.46321  -0.44340  -0.44246  -0.44245  -0.42725
 Alpha  occ. eigenvalues --   -0.42724  -0.40319  -0.40238  -0.40237  -0.39580
 Alpha  occ. eigenvalues --   -0.37219  -0.37219  -0.37129  -0.35189  -0.35188
 Alpha  occ. eigenvalues --   -0.34134  -0.33460  -0.33459  -0.31867  -0.31862
 Alpha  occ. eigenvalues --   -0.31862  -0.27683  -0.27414  -0.27143  -0.27142
 Alpha  occ. eigenvalues --   -0.25829  -0.25827  -0.22677
 Alpha virt. eigenvalues --   -0.03958  -0.03956  -0.03032  -0.01964  -0.01787
 Alpha virt. eigenvalues --   -0.01785   0.02242   0.02243   0.02402   0.05592
 Alpha virt. eigenvalues --    0.05595   0.10343   0.12154   0.12345   0.12345

 Mulliken charges:
               1
     1  C   -0.121707
     2  C   -0.173079
     3  C   -0.132178
     4  C   -0.170587
     5  C   -0.120260
     6  C   -0.102309
     7  Cl  -0.046473
     8  P    0.446515
     9  C   -0.088116
    10  C   -0.147472
    11  C   -0.119192
    12  C   -0.067206
    13  C   -0.113935
    14  C   -0.162685
    15  Cl   0.010780
    16  C   -0.095383
    17  C   -0.153504
    18  C   -0.124008
    19  C   -0.081441
    20  C   -0.112879
    21  C   -0.166128
    22  Cl  -0.013552
    23  H    0.142907
    24  H    0.126247
    25  H    0.139459
    26  H    0.146498
    27  H    0.185408
    28  H    0.172095
    29  H    0.167671
    30  H    0.156886
    31  H    0.149651
    32  H    0.158569
    33  H    0.160453
    34  H    0.148952
 Sum of Mulliken charges =  -0.00000

 Dipole moment (field-independent basis, Debye):
    X=             -4.1462    Y=             -0.5883    Z=              1.9734  Tot=              4.6294
 Quadrupole moment (field-independent basis, Debye-Ang):
   XX=           -167.2895   YY=           -167.8241   ZZ=           -145.0325
   XY=             -8.9448   XZ=              0.8341   YZ=             -0.6036

 Summary of Natural Population Analysis:

                                       Natural Population
                Natural  -----------------------------------------------
    Atom  No    Charge         Core      Valence    Rydberg      Total
 -----------------------------------------------------------------------
      C    1   -0.25698      1.99894     4.24173    0.01632     6.25698
      C    2   -0.22446      1.99901     4.20925    0.01620     6.22446
      C    3   -0.48701      1.99887     4.46242    0.02572     6.48701
      C    4   -0.24211      1.99899     4.22549    0.01764     6.24211
      C    5   -0.24740      1.99893     4.23246    0.01601     6.24740
      C    6   -0.09476      1.99854     4.07400    0.02222     6.09476
     Cl    7   -0.01854      9.99967     6.99833    0.02053    17.01854
      P    8    1.21207      9.99758     3.74050    0.04985    13.78793
      C    9   -0.39251      1.99891     4.36811    0.02550     6.39251
      C   10   -0.19152      1.99900     4.17647    0.01606     6.19152
      C   11   -0.24546      1.99892     4.23105    0.01548     6.24546
      C   12   -0.02268      1.99855     4.00184    0.02229     6.02268
      C   13   -0.24239      1.99893     4.22820    0.01526     6.24239
      C   14   -0.20178      1.99902     4.18739    0.01537     6.20178
     Cl   15    0.02450      9.99967     6.95641    0.01942    16.97550
      C   16   -0.41548      1.99888     4.39262    0.02398     6.41548
      C   17   -0.19039      1.99901     4.17602    0.01536     6.19039
      C   18   -0.26097      1.99893     4.24573    0.01631     6.26097
      C   19   -0.05218      1.99855     4.03140    0.02223     6.05218
      C   20   -0.23426      1.99893     4.22006    0.01527     6.23426
      C   21   -0.23546      1.99899     4.21944    0.01703     6.23546
     Cl   22    0.00595      9.99967     6.97448    0.01990    16.99405
      H   23    0.24842      0.00000     0.75052    0.00107     0.75158
      H   24    0.23131      0.00000     0.76779    0.00091     0.76869
      H   25    0.24137      0.00000     0.75712    0.00151     0.75863
      H   26    0.25068      0.00000     0.74828    0.00105     0.74932
      H   27    0.26726      0.00000     0.73149    0.00124     0.73274
      H   28    0.26268      0.00000     0.73626    0.00105     0.73732
      H   29    0.25981      0.00000     0.73912    0.00108     0.74019
      H   30    0.24725      0.00000     0.75164    0.00111     0.75275
      H   31    0.24467      0.00000     0.75415    0.00117     0.75533
      H   32    0.25628      0.00000     0.74269    0.00103     0.74372
      H   33    0.25699      0.00000     0.74195    0.00106     0.74301
      H   34    0.24713      0.00000     0.75158    0.00129     0.75287
 =======================================================================
   * Total *   -0.00000     75.97648   109.56602    0.45750   186.00000

 Normal termination of Gaussian 16 at Sun Aug 23 03:25:17 2020.
