 Gaussian 16, Revision A.03,

 ---------------------------------
 # opt=CalcAll B3LYP/6-31G* scf=qc
 ---------------------------------

 -------------------
 Title Card Required
 -------------------
 Symbolic Z-matrix:
 Charge =  0 Multiplicity = 1

 SCF Done:  E(RB3LYP) =  -844.557407716     a.u. after    8 cycles
 SCF Done:  E(RB3LYP) =  -844.563665581     a.u. after   15 cycles
 SCF Done:  E(RB3LYP) =  -844.564126133     a.u. after   15 cycles
 SCF Done:  E(RB3LYP) =  -844.564266028     a.u. after   13 cycles
 SCF Done:  E(RB3LYP) =  -844.564327144     a.u. after   11 cycles
 SCF Done:  E(RB3LYP) =  -844.564329154     a.u. after    5 cycles
 SCF Done:  E(RB3LYP) =  -844.564329511     a.u. after    2 cycles
 SCF Done:  E(RB3LYP) =  -844.564329559     a.u. after    2 cycles
 Optimization completed.
    -- Stationary point found.
 Normal termination of Gaussian 16 at Sun Aug 23 12:48:09 2020.

 ----------------------------------------------------------------------
 # freq B3LYP/6-31G* scf=qc volume NMR pop=NPA density=current Geom=All
 Check Guess=Read
 ----------------------------------------------------------------------

 Structure from the checkpoint file:  "phosphine_3_conf52.chk"
 -------------------
 Title Card Required
 -------------------
 Charge =  0 Multiplicity = 1

 SCF Done:  E(RB3LYP) =  -844.564329559     a.u. after    1 cycles

      1  C    Isotropic =   173.0290   Anisotropy =    19.3275

      2  H    Isotropic =    30.7060   Anisotropy =     7.2637

      3  H    Isotropic =    31.0016   Anisotropy =     8.5255

      4  H    Isotropic =    30.7453   Anisotropy =    10.5228

      5  P    Isotropic =   385.0724   Anisotropy =    60.2441

      6  C    Isotropic =    51.8696   Anisotropy =   182.8460

      7  C    Isotropic =    62.8757   Anisotropy =   171.1472

      8  C    Isotropic =    68.2792   Anisotropy =   164.2387

      9  C    Isotropic =    67.5059   Anisotropy =   168.3004

     10  C    Isotropic =    69.1693   Anisotropy =   163.2074

     11  C    Isotropic =    60.5065   Anisotropy =   159.8414

     12  C    Isotropic =    52.7884   Anisotropy =   183.2140

     13  C    Isotropic =    62.6046   Anisotropy =   166.8343

     14  C    Isotropic =    68.8100   Anisotropy =   164.5512

     15  C    Isotropic =    69.4144   Anisotropy =   165.2699

     16  C    Isotropic =    68.8482   Anisotropy =   164.0561

     17  C    Isotropic =    67.9821   Anisotropy =   167.4371

     18  H    Isotropic =    25.1718   Anisotropy =    11.3364

     19  H    Isotropic =    25.0795   Anisotropy =     5.9091

     20  H    Isotropic =    25.0153   Anisotropy =     3.8947

     21  H    Isotropic =    24.9616   Anisotropy =     4.4623

     22  H    Isotropic =    24.4817   Anisotropy =     7.9898

     23  H    Isotropic =    24.9780   Anisotropy =    10.0498

     24  H    Isotropic =    25.0470   Anisotropy =     4.9716

     25  H    Isotropic =    25.0796   Anisotropy =     3.7302

     26  H    Isotropic =    24.9265   Anisotropy =     4.8984

     27  H    Isotropic =    24.8797   Anisotropy =     9.9826

  Exact polarizability: 201.369   1.872 138.253 -20.881  -1.680 117.927
 Approx polarizability: 285.404   3.917 225.356 -48.285  -5.097 209.277

                      1                      2                      3
                      A                      A                      A
 Frequencies --     19.6599                29.9366                55.9401
 Red. masses --      3.7896                 3.8332                 5.0668
 Frc consts  --      0.0009                 0.0020                 0.0093
 IR Inten    --      0.2502                 0.0666                 0.0708

                      4                      5                      6
                      A                      A                      A
 Frequencies --    117.5763               178.5471               186.9072
 Red. masses --      3.3696                 3.4613                 3.6209
 Frc consts  --      0.0274                 0.0650                 0.0745
 IR Inten    --      0.5137                 0.7293                 0.2038

                      7                      8                      9
                      A                      A                      A
 Frequencies --    233.3213               246.3825               267.1243
 Red. masses --      1.8298                 1.6582                 3.6691
 Frc consts  --      0.0587                 0.0593                 0.1543
 IR Inten    --      0.4884                 0.3057                 0.1577

                     10                     11                     12
                      A                      A                      A
 Frequencies --    323.1946               396.5585               408.1558
 Red. masses --      4.4974                 5.9075                 3.1697
 Frc consts  --      0.2768                 0.5474                 0.3111
 IR Inten    --      2.2783                 2.7510                 2.8921

                     13                     14                     15
                      A                      A                      A
 Frequencies --    412.6958               419.7843               488.2744
 Red. masses --      3.0647                 6.9747                 3.5146
 Frc consts  --      0.3075                 0.7241                 0.4937
 IR Inten    --      0.6195                 8.2516                10.4585

                     16                     17                     18
                      A                      A                      A
 Frequencies --    515.9354               632.6631               633.0545
 Red. masses --      3.9375                 6.4093                 6.4012
 Frc consts  --      0.6175                 1.5115                 1.5114
 IR Inten    --     12.4239                 0.1767                 0.0923

                     19                     20                     21
                      A                      A                      A
 Frequencies --    674.2399               702.6884               705.0866
 Red. masses --      5.3394                 6.1941                 4.9212
 Frc consts  --      1.4301                 1.8020                 1.4415
 IR Inten    --      8.3393                 0.9802                 3.2609

                     22                     23                     24
                      A                      A                      A
 Frequencies --    712.0464               713.7116               757.4335
 Red. masses --      2.2699                 2.0653                 1.5779
 Frc consts  --      0.6781                 0.6198                 0.5333
 IR Inten    --     20.8327                26.9318                35.5733

                     25                     26                     27
                      A                      A                      A
 Frequencies --    763.0329               861.1814               867.3757
 Red. masses --      1.7189                 1.2514                 1.2452
 Frc consts  --      0.5896                 0.5468                 0.5520
 IR Inten    --     13.6450                 0.1857                 0.0193

                     28                     29                     30
                      A                      A                      A
 Frequencies --    910.2572               919.8516               922.6462
 Red. masses --      1.3086                 1.2937                 1.3544
 Frc consts  --      0.6388                 0.6449                 0.6793
 IR Inten    --     24.9491                28.3927                 1.4301

                     31                     32                     33
                      A                      A                      A
 Frequencies --    936.7009               969.7283               977.1860
 Red. masses --      1.3619                 1.3597                 1.3601
 Frc consts  --      0.7040                 0.7534                 0.7652
 IR Inten    --      4.6262                 0.0627                 0.1022

                     34                     35                     36
                      A                      A                      A
 Frequencies --    996.8355              1001.2375              1015.2371
 Red. masses --      1.2506                 1.2591                 6.2349
 Frc consts  --      0.7322                 0.7437                 3.7863
 IR Inten    --      0.1419                 0.0537                 1.2332

                     37                     38                     39
                      A                      A                      A
 Frequencies --   1015.9825              1052.1457              1054.4469
 Red. masses --      6.2493                 3.2220                 3.1933
 Frc consts  --      3.8006                 2.1015                 2.0919
 IR Inten    --      2.5444                 1.0742                 1.1867

                     40                     41                     42
                      A                      A                      A
 Frequencies --   1106.2692              1112.2018              1113.0486
 Red. masses --      1.7291                 1.7333                 2.4341
 Frc consts  --      1.2468                 1.2633                 1.7767
 IR Inten    --      1.6957                 2.4154                13.3199

                     43                     44                     45
                      A                      A                      A
 Frequencies --   1117.9831              1193.4828              1194.2044
 Red. masses --      2.5285                 1.1026                 1.0987
 Frc consts  --      1.8620                 0.9254                 0.9232
 IR Inten    --      2.1470                 0.0064                 0.0647

                     46                     47                     48
                      A                      A                      A
 Frequencies --   1216.9041              1223.4341              1323.7518
 Red. masses --      1.1444                 1.1502                 3.2574
 Frc consts  --      0.9985                 1.0143                 3.3631
 IR Inten    --      3.9182                 0.6685                 2.3616

                     49                     50                     51
                      A                      A                      A
 Frequencies --   1331.6660              1351.3858              1363.1552
 Red. masses --      3.3532                 1.2958                 1.7088
 Frc consts  --      3.5034                 1.3943                 1.8709
 IR Inten    --      2.8865                 2.1917                 1.4898

                     52                     53                     54
                      A                      A                      A
 Frequencies --   1371.5838              1479.5011              1482.4652
 Red. masses --      1.5139                 2.0991                 2.0753
 Frc consts  --      1.6780                 2.7071                 2.6872
 IR Inten    --      2.1496                12.2424                 5.4959

                     55                     56                     57
                      A                      A                      A
 Frequencies --   1501.1070              1502.2060              1530.8723
 Red. masses --      1.0620                 1.0627                 2.0236
 Frc consts  --      1.4099                 1.4129                 2.7941
 IR Inten    --      4.2139                16.6950                 4.9317

                     58                     59                     60
                      A                      A                      A
 Frequencies --   1534.8441              1630.0412              1632.4691
 Red. masses --      1.9732                 5.0204                 5.1792
 Frc consts  --      2.7387                 7.8593                 8.1321
 IR Inten    --      6.4921                 1.1121                 0.2816

                     61                     62                     63
                      A                      A                      A
 Frequencies --   1646.7294              1649.4830              3049.4824
 Red. masses --      5.3166                 5.2603                 1.0329
 Frc consts  --      8.4944                 8.4325                 5.6592
 IR Inten    --      1.7923                 3.4198                12.5554

                     64                     65                     66
                      A                      A                      A
 Frequencies --   3131.3048              3138.0892              3174.8620
 Red. masses --      1.1045                 1.1020                 1.0855
 Frc consts  --      6.3805                 6.3940                 6.4465
 IR Inten    --     12.2639                 8.6823                 3.7903

                     67                     68                     69
                      A                      A                      A
 Frequencies --   3176.3213              3181.6146              3182.0178
 Red. masses --      1.0847                 1.0871                 1.0872
 Frc consts  --      6.4480                 6.4835                 6.4859
 IR Inten    --      1.4535                 0.5335                 0.2226

                     70                     71                     72
                      A                      A                      A
 Frequencies --   3190.9765              3192.1142              3198.2189
 Red. masses --      1.0907                 1.0916                 1.0939
 Frc consts  --      6.5432                 6.5537                 6.5927
 IR Inten    --      9.6938                21.0444                33.3463

                     73                     74                     75
                      A                      A                      A
 Frequencies --   3203.7135              3207.1121              3210.6109
 Red. masses --      1.0936                 1.0979                 1.0954
 Frc consts  --      6.6135                 6.6536                 6.6527
 IR Inten    --     34.2081                31.3244                18.4738

 - Thermochemistry -
 -------------------
 Temperature   298.150 Kelvin.  Pressure   1.00000 Atm.
 Atom     1 has atomic number  6 and mass  12.00000

 Molecular mass:   200.07549 amu.
 Principal axes and moments of inertia in atomic units:
                           1         2         3
     Eigenvalues --  1569.884744673.605235299.39679
           X            0.99999   0.00072  -0.00536
           Y           -0.00047   0.99898   0.04505
           Z            0.00538  -0.04505   0.99897
 This molecule is an asymmetric top.
 Rotational symmetry number  1.
 Warning -- assumption of classical behavior for rotation
           may cause significant error
 Rotational temperatures (Kelvin)      0.05517     0.01853     0.01634
 Rotational constants (GHZ):           1.14960     0.38616     0.34056
 Zero-point vibrational energy     579829.9 (Joules/Mol)
                                  138.58267 (Kcal/Mol)
 Warning -- explicit consideration of  16 degrees of freedom as
           vibrations may cause significant error
 Vibrational temperatures:     28.29    43.07    80.49   169.17   256.89
          (Kelvin)            268.92   335.70   354.49   384.33   465.00
                              570.56   587.25   593.78   603.98   702.52
                              742.32   910.26   910.82   970.08  1011.01
                             1014.46  1024.48  1026.87  1089.78  1097.83
                             1239.05  1247.96  1309.66  1323.46  1327.48
                             1347.70  1395.22  1405.95  1434.22  1440.56
                             1460.70  1461.77  1513.80  1517.11  1591.67
                             1600.21  1601.43  1608.53  1717.16  1718.19
                             1750.85  1760.25  1904.58  1915.97  1944.34
                             1961.28  1973.40  2128.67  2132.94  2159.76
                             2161.34  2202.58  2208.30  2345.27  2348.76
                             2369.28  2373.24  4387.53  4505.25  4515.01
                             4567.92  4570.02  4577.63  4578.21  4591.10
                             4592.74  4601.52  4609.43  4614.32  4619.35

 Zero-point correction=                           0.220846 (Hartree/Particle)
 Thermal correction to Energy=                    0.233542
 Thermal correction to Enthalpy=                  0.234486
 Thermal correction to Gibbs Free Energy=         0.179769
 Sum of electronic and zero-point Energies=           -844.343484
 Sum of electronic and thermal Energies=              -844.330788
 Sum of electronic and thermal Enthalpies=            -844.329844
 Sum of electronic and thermal Free Energies=         -844.384560

                     E (Thermal)             CV                S
                      KCal/Mol        Cal/Mol-Kelvin    Cal/Mol-Kelvin
 Total                  146.550             49.332            115.161
 Electronic               0.000              0.000              0.000
 Translational            0.889              2.981             41.785
 Rotational               0.889              2.981             32.031
 Vibrational            144.772             43.370             41.345
 Vibration     1          0.593              1.986              6.668
 Vibration     2          0.594              1.984              5.834
 Vibration     3          0.596              1.975              4.596
 Vibration     4          0.608              1.935              3.140
 Vibration     5          0.629              1.869              2.344
 Vibration     6          0.632              1.858              2.258
 Vibration     7          0.654              1.790              1.853
 Vibration     8          0.661              1.769              1.756
 Vibration     9          0.672              1.733              1.615
 Vibration    10          0.708              1.629              1.294
 Vibration    11          0.763              1.478              0.975
 Vibration    12          0.773              1.453              0.933
 Vibration    13          0.776              1.443              0.917
 Vibration    14          0.782              1.427              0.893
 Vibration    15          0.844              1.276              0.688
 Vibration    16          0.871              1.215              0.619

 Optimization completed.
    -- Stationary point found.
 Normal termination of Gaussian 16 at Sun Aug 23 12:54:15 2020.
 Gaussian 16:  ES64L-G16RevA.03 25-Dec-2016

 ----------------------------------------------------------------------
 # TD(NStates=10, Root=1) B3LYP/6-31G* scf=qc volume pop=NPA density=cu
 rrent Geom=AllCheck Guess=Read
 ----------------------------------------------------------------------

 Structure from the checkpoint file:  "phosphine_3_conf53.chk"
 -------------------
 Title Card Required
 -------------------
 Charge =  0 Multiplicity = 1

                         Standard orientation:
 ---------------------------------------------------------------------
 Center     Atomic      Atomic             Coordinates (Angstroms)
 Number     Number       Type             X           Y           Z
 ---------------------------------------------------------------------
      1          6           0        0.056678    2.585716    0.714293
      2          1           0       -0.004310    2.109056    1.698659
      3          1           0        0.994832    3.146484    0.657092
      4          1           0       -0.766212    3.300093    0.606238
      5         15           0        0.036684    1.369026   -0.701702
      6          6           0        1.438355    0.263171   -0.190233
      7          6           0        1.386256   -0.598094    0.917732
      8          6           0        2.489213   -1.377401    1.265327
      9          6           0        3.664080   -1.307149    0.511602
     10          6           0        3.728577   -0.458012   -0.593144
     11          6           0        2.620475    0.317372   -0.943230
     12          6           0       -1.434481    0.319093   -0.299625
     13          6           0       -1.640528   -0.841884   -1.067115
     14          6           0       -2.760466   -1.645684   -0.867680
     15          6           0       -3.712774   -1.296777    0.094036
     16          6           0       -3.530207   -0.141849    0.852902
     17          6           0       -2.400057    0.658002    0.659832
     18          1           0        0.474006   -0.666386    1.504626
     19          1           0        2.432872   -2.041330    2.124411
     20          1           0        4.522576   -1.916115    0.782869
     21          1           0        4.637136   -0.403138   -1.187364
     22          1           0        2.670564    0.969012   -1.812486
     23          1           0       -0.911926   -1.120404   -1.825291
     24          1           0       -2.894174   -2.542614   -1.467097
     25          1           0       -4.590652   -1.919070    0.246014
     26          1           0       -4.265636    0.140194    1.602305
     27          1           0       -2.280065    1.549810    1.267359
 ---------------------------------------------------------------------

 SCF Done:  E(RB3LYP) =  -844.564329559     a.u. after    1 cycles

 Excitation energies and oscillator strengths:

 Excited State   1:      Singlet-A      4.6039 eV  269.30 nm  f=0.0435  <S**2>=0.000
      53 -> 54         0.68723
      53 -> 55         0.11743
 This state for optimization and/or second-order correction.
 Total Energy, E(TD-HF/TD-DFT) =  -844.395140436
 Copying the excited state density for this state as the 1-particle RhoCI density.

 Excited State   2:      Singlet-A      4.8957 eV  253.25 nm  f=0.0129  <S**2>=0.000
      51 -> 55        -0.10654
      52 -> 54         0.13696
      52 -> 55        -0.11081
      53 -> 55         0.22377
      53 -> 56         0.62624

 Excited State   3:      Singlet-A      5.0081 eV  247.57 nm  f=0.1456  <S**2>=0.000
      53 -> 54        -0.10809
      53 -> 55         0.61720
      53 -> 56        -0.19980
      53 -> 57         0.18814

 Excited State   4:      Singlet-A      5.1447 eV  240.99 nm  f=0.0379  <S**2>=0.000
      50 -> 55        -0.12101
      51 -> 54        -0.20890
      52 -> 55         0.13447
      52 -> 56        -0.10054
      53 -> 55        -0.16867
      53 -> 56         0.12438
      53 -> 57         0.59543

 Excited State   5:      Singlet-A      5.4215 eV  228.69 nm  f=0.0047  <S**2>=0.000
      50 -> 55         0.19228
      50 -> 56         0.26452
      50 -> 57         0.20854
      51 -> 54         0.36804
      51 -> 55         0.15877
      52 -> 54        -0.31135
      52 -> 56         0.15544
      52 -> 57         0.12162
      53 -> 56         0.12026
      53 -> 57         0.16400

 Excited State   6:      Singlet-A      5.7387 eV  216.05 nm  f=0.0117  <S**2>=0.000
      49 -> 56        -0.20594
      49 -> 57         0.15919
      50 -> 54        -0.15949
      51 -> 54         0.32346
      52 -> 54         0.48504
      53 -> 57         0.18606

 Excited State   7:      Singlet-A      5.8270 eV  212.78 nm  f=0.0124  <S**2>=0.000
      49 -> 56         0.24824
      49 -> 57        -0.17990
      51 -> 54         0.14239
      51 -> 55         0.13202
      51 -> 56        -0.11204
      52 -> 54         0.18666
      52 -> 55         0.51482
      53 -> 57        -0.14808

 Excited State   8:      Singlet-A      5.8572 eV  211.68 nm  f=0.0220  <S**2>=0.000
      49 -> 54         0.18058
      49 -> 56         0.10115
      50 -> 54         0.46222
      50 -> 55        -0.34304
      50 -> 56         0.16426
      51 -> 56        -0.10982
      52 -> 54         0.14559
      52 -> 56         0.19497

 Excited State   9:      Singlet-A      5.9280 eV  209.15 nm  f=0.0005  <S**2>=0.000
      50 -> 54        -0.16585
      51 -> 54        -0.20670
      51 -> 55         0.57149
      51 -> 56        -0.12194
      52 -> 55        -0.21533
      52 -> 56         0.13299

 Excited State  10:      Singlet-A      5.9925 eV  206.90 nm  f=0.0264  <S**2>=0.000
      49 -> 54         0.31196
      50 -> 54         0.20324
      50 -> 55         0.45947
      50 -> 56        -0.17109
      51 -> 54        -0.13421
      51 -> 56        -0.16762
      52 -> 55         0.12335
      52 -> 56         0.14978

 The electronic state is 1-A.
 Alpha  occ. eigenvalues --  -77.07968 -10.19393 -10.19299 -10.19192 -10.19093
 Alpha  occ. eigenvalues --  -10.19069 -10.19059 -10.19011 -10.19001 -10.18964
 Alpha  occ. eigenvalues --  -10.18942 -10.18899 -10.18857 -10.18421  -6.54710
 Alpha  occ. eigenvalues --   -4.70976  -4.70963  -4.70459  -0.85270  -0.84774
 Alpha  occ. eigenvalues --   -0.76468  -0.74321  -0.74256  -0.73796  -0.70921
 Alpha  occ. eigenvalues --   -0.62338  -0.60252  -0.59977  -0.59281  -0.55060
 Alpha  occ. eigenvalues --   -0.51448  -0.49651  -0.45409  -0.44649  -0.44597
 Alpha  occ. eigenvalues --   -0.44242  -0.42401  -0.42079  -0.41685  -0.41109
 Alpha  occ. eigenvalues --   -0.38955  -0.37871  -0.36382  -0.36120  -0.34369
 Alpha  occ. eigenvalues --   -0.34239  -0.32560  -0.31576  -0.26446  -0.25180
 Alpha  occ. eigenvalues --   -0.25018  -0.24725  -0.21380
 Alpha virt. eigenvalues --   -0.01530  -0.00807  -0.00420   0.00542   0.06284
 Alpha virt. eigenvalues --    0.07174   0.09234   0.10908   0.12717   0.13594
 Alpha virt. eigenvalues --    0.14142   0.14681   0.15149   0.15528   0.16193

 Mulliken charges:
               1
     1  C   -0.640347
     2  H    0.215657
     3  H    0.203722
     4  H    0.161066
     5  P    0.507426
     6  C   -0.150298
     7  C   -0.192302
     8  C   -0.109915
     9  C   -0.192778
    10  C   -0.134752
    11  C   -0.175816
    12  C   -0.067119
    13  C   -0.143117
    14  C   -0.115322
    15  C   -0.121512
    16  C   -0.112997
    17  C   -0.159618
    18  H    0.087351
    19  H    0.100170
    20  H    0.085495
    21  H    0.093469
    22  H    0.089966
    23  H    0.168949
    24  H    0.152399
    25  H    0.153107
    26  H    0.149072
    27  H    0.148043
 Sum of Mulliken charges =  -0.00000

 Dipole moment (field-independent basis, Debye):
    X=             -7.0072    Y=              2.3417    Z=             -0.4360  Tot=              7.4010
 Quadrupole moment (field-independent basis, Debye-Ang):
   XX=            -91.9190   YY=            -83.0692   ZZ=            -86.8634
   XY=              6.4529   XZ=             -4.1091   YZ=              1.5630

 Summary of Natural Population Analysis:

                                       Natural Population
                Natural  -----------------------------------------------
    Atom  No    Charge         Core      Valence    Rydberg      Total
 -----------------------------------------------------------------------
      C    1   -1.03465      1.99946     5.02409    0.01111     7.03465
      H    2    0.27674      0.00000     0.72217    0.00109     0.72326
      H    3    0.27449      0.00000     0.72482    0.00069     0.72551
      H    4    0.23977      0.00000     0.75840    0.00183     0.76023
      P    5    1.25999      9.99755     3.69257    0.04989    13.74001
      C    6   -0.53821      1.99883     4.51447    0.02492     6.53821
      C    7   -0.30980      1.99898     4.29105    0.01977     6.30980
      C    8   -0.21949      1.99908     4.20595    0.01445     6.21949
      C    9   -0.34751      1.99910     4.33062    0.01779     6.34751
      C   10   -0.26951      1.99910     4.25448    0.01594     6.26951
      C   11   -0.23974      1.99902     4.22466    0.01606     6.23974
      C   12   -0.37071      1.99892     4.34855    0.02324     6.37071
      C   13   -0.18256      1.99902     4.16715    0.01640     6.18256
      C   14   -0.23275      1.99910     4.21947    0.01417     6.23275
      C   15   -0.19006      1.99909     4.17691    0.01406     6.19006
      C   16   -0.22552      1.99910     4.21219    0.01424     6.22552
      C   17   -0.21166      1.99900     4.19730    0.01535     6.21166
      H   18    0.21298      0.00000     0.78595    0.00106     0.78702
      H   19    0.22424      0.00000     0.77490    0.00086     0.77576
      H   20    0.21567      0.00000     0.78355    0.00078     0.78433
      H   21    0.22042      0.00000     0.77872    0.00086     0.77958
      H   22    0.21174      0.00000     0.78753    0.00073     0.78826
      H   23    0.25531      0.00000     0.74311    0.00159     0.74469
      H   24    0.24841      0.00000     0.75081    0.00078     0.75159
      H   25    0.24448      0.00000     0.75473    0.00079     0.75552
      H   26    0.24608      0.00000     0.75309    0.00083     0.75392
      H   27    0.24186      0.00000     0.75691    0.00123     0.75814
 =======================================================================
   * Total *   -0.00000     35.98536    69.73412    0.28052   106.00000

 Normal termination of Gaussian 16 at Sun Aug 23 13:01:53 2020.
