 Gaussian 16, Revision A.03,

 ---------------------------------
 # opt=CalcAll B3LYP/6-31G* scf=qc
 ---------------------------------

 -------------------
 Title Card Required
 -------------------
 Symbolic Z-matrix:
 Charge =  0 Multiplicity = 1

 SCF Done:  E(RB3LYP) =  -1036.28403160     a.u. after    8 cycles
 SCF Done:  E(RB3LYP) =  -1036.29393162     a.u. after   17 cycles
 SCF Done:  E(RB3LYP) =  -1036.29667990     a.u. after   15 cycles
 SCF Done:  E(RB3LYP) =  -1036.29770190     a.u. after   15 cycles
 SCF Done:  E(RB3LYP) =  -1036.29811347     a.u. after   15 cycles
 SCF Done:  E(RB3LYP) =  -1036.29820251     a.u. after   11 cycles
 SCF Done:  E(RB3LYP) =  -1036.29821432     a.u. after    5 cycles
 SCF Done:  E(RB3LYP) =  -1036.29822847     a.u. after   11 cycles
 SCF Done:  E(RB3LYP) =  -1036.29822977     a.u. after    7 cycles
 SCF Done:  E(RB3LYP) =  -1036.29823437     a.u. after    2 cycles
 SCF Done:  E(RB3LYP) =  -1036.29823948     a.u. after    4 cycles
 SCF Done:  E(RB3LYP) =  -1036.29822936     a.u. after    2 cycles
 SCF Done:  E(RB3LYP) =  -1036.29823324     a.u. after    3 cycles
 SCF Done:  E(RB3LYP) =  -1036.29822933     a.u. after    4 cycles
 SCF Done:  E(RB3LYP) =  -1036.29822959     a.u. after    2 cycles
 SCF Done:  E(RB3LYP) =  -1036.29823319     a.u. after    2 cycles
 SCF Done:  E(RB3LYP) =  -1036.29823191     a.u. after    2 cycles
 SCF Done:  E(RB3LYP) =  -1036.29823583     a.u. after    2 cycles
 Optimization completed.
    -- Stationary point found.
 Normal termination of Gaussian 16 at Sun Aug 23 06:17:06 2020.

 ----------------------------------------------------------------------
 # freq B3LYP/6-31G* scf=qc volume NMR pop=NPA density=current Geom=All
 Check Guess=Read
 ----------------------------------------------------------------------

 Structure from the checkpoint file:  "phosphine_1_conf152.chk"
 -------------------
 Title Card Required
 -------------------
 Charge =  0 Multiplicity = 1

 SCF Done:  E(RB3LYP) =  -1036.29823583     a.u. after    1 cycles

      1  C    Isotropic =    68.1699   Anisotropy =   167.3530

      2  C    Isotropic =    68.7200   Anisotropy =   164.1359

      3  C    Isotropic =    61.0050   Anisotropy =   164.0922

      4  C    Isotropic =    56.0890   Anisotropy =   179.4528

      5  C    Isotropic =    62.5619   Anisotropy =   174.0307

      6  C    Isotropic =    68.6808   Anisotropy =   163.8809

      7  P    Isotropic =   361.4943   Anisotropy =    39.7629

      8  C    Isotropic =    56.1008   Anisotropy =   179.4131

      9  C    Isotropic =    62.6103   Anisotropy =   174.0129

     10  C    Isotropic =    68.6837   Anisotropy =   163.8930

     11  C    Isotropic =    68.1839   Anisotropy =   167.3237

     12  C    Isotropic =    68.7297   Anisotropy =   164.1242

     13  C    Isotropic =    61.0330   Anisotropy =   164.1385

     14  C    Isotropic =    56.1535   Anisotropy =   179.4300

     15  C    Isotropic =    62.5587   Anisotropy =   174.1125

     16  C    Isotropic =    68.6820   Anisotropy =   163.8996

     17  C    Isotropic =    68.1544   Anisotropy =   167.3543

     18  C    Isotropic =    68.7273   Anisotropy =   164.1113

     19  C    Isotropic =    60.9949   Anisotropy =   164.0903

     20  H    Isotropic =    25.0192   Anisotropy =     3.6434

     21  H    Isotropic =    24.9263   Anisotropy =     4.5906

     22  H    Isotropic =    24.6127   Anisotropy =     9.2508

     23  H    Isotropic =    25.4003   Anisotropy =    12.2251

     24  H    Isotropic =    25.0480   Anisotropy =     6.0864

     25  H    Isotropic =    25.4062   Anisotropy =    12.2380

     26  H    Isotropic =    25.0493   Anisotropy =     6.0875

     27  H    Isotropic =    25.0202   Anisotropy =     3.6426

     28  H    Isotropic =    24.9269   Anisotropy =     4.5909

     29  H    Isotropic =    24.6164   Anisotropy =     9.2591

     30  H    Isotropic =    25.3957   Anisotropy =    12.2233

     31  H    Isotropic =    25.0463   Anisotropy =     6.0873

     32  H    Isotropic =    25.0190   Anisotropy =     3.6433

     33  H    Isotropic =    24.9281   Anisotropy =     4.5837

     34  H    Isotropic =    24.6120   Anisotropy =     9.2418

  Exact polarizability: 224.214   0.072 223.980  -0.026   0.105 165.100
 Approx polarizability: 331.058   0.168 330.599  -0.065   0.248 308.157

                      1                      2                      3
                      A                      A                      A
 Frequencies --     23.7500                25.1202                39.2829
 Red. masses --      3.8001                 3.8023                 3.6902
 Frc consts  --      0.0013                 0.0014                 0.0034
 IR Inten    --      0.2819                 0.2816                 0.0020

                      4                      5                      6
                      A                      A                      A
 Frequencies --     53.2997                53.4715                70.6726
 Red. masses --      5.2494                 5.2447                 5.1671
 Frc consts  --      0.0088                 0.0088                 0.0152
 IR Inten    --      0.0855                 0.0873                 0.3103

                      7                      8                      9
                      A                      A                      A
 Frequencies --    181.7510               202.6877               202.7311
 Red. masses --      4.5634                 4.6422                 4.6416
 Frc consts  --      0.0888                 0.1124                 0.1124
 IR Inten    --      0.3514                 1.1305                 1.1324

                     10                     11                     12
                      A                      A                      A
 Frequencies --    245.5685               259.7079               260.0329
 Red. masses --      5.7386                 4.7209                 4.7237
 Frc consts  --      0.2039                 0.1876                 0.1882
 IR Inten    --      0.4825                 0.2278                 0.2262

                     13                     14                     15
                      A                      A                      A
 Frequencies --    408.8781               408.9594               412.4378
 Red. masses --      3.0801                 3.0823                 3.6040
 Frc consts  --      0.3034                 0.3037                 0.3612
 IR Inten    --      1.9749                 1.9728                 0.1604

                     16                     17                     18
                      A                      A                      A
 Frequencies --    417.2564               429.4332               429.5981
 Red. masses --      4.6012                 7.3146                 7.3085
 Frc consts  --      0.4720                 0.7948                 0.7947
 IR Inten    --      0.5625                 7.6891                 7.7335

                     19                     20                     21
                      A                      A                      A
 Frequencies --    509.5104               509.6576               516.5643
 Red. masses --      4.2462                 4.2443                 4.5912
 Frc consts  --      0.6495                 0.6496                 0.7218
 IR Inten    --     26.0489                26.1164                11.9552

                     22                     23                     24
                      A                      A                      A
 Frequencies --    632.7131               632.7390               633.3616
 Red. masses --      6.4276                 6.4272                 6.4371
 Frc consts  --      1.5160                 1.5161                 1.5214
 IR Inten    --      0.1804                 0.1805                 0.0165

                     25                     26                     27
                      A                      A                      A
 Frequencies --    691.8713               705.1323               705.2152
 Red. masses --      6.5798                 5.7291                 5.7724
 Frc consts  --      1.8557                 1.6783                 1.6914
 IR Inten    --      0.8021                 1.1143                 1.1007

                     28                     29                     30
                      A                      A                      A
 Frequencies --    712.3566               712.4234               713.4505
 Red. masses --      2.1982                 2.1954                 2.1371
 Frc consts  --      0.6572                 0.6565                 0.6409
 IR Inten    --     26.3559                26.5232                16.5712

                     31                     32                     33
                      A                      A                      A
 Frequencies --    761.4632               762.9237               762.9592
 Red. masses --      1.6141                 1.6475                 1.6496
 Frc consts  --      0.5514                 0.5650                 0.5658
 IR Inten    --     19.1855                25.0252                24.8322

                     34                     35                     36
                      A                      A                      A
 Frequencies --    866.2627               866.4080               868.9278
 Red. masses --      1.2476                 1.2476                 1.2461
 Frc consts  --      0.5516                 0.5518                 0.5543
 IR Inten    --      0.2201                 0.2190                 0.1292

                     37                     38                     39
                      A                      A                      A
 Frequencies --    932.9738               933.1349               934.4478
 Red. masses --      1.3441                 1.3439                 1.3382
 Frc consts  --      0.6893                 0.6895                 0.6885
 IR Inten    --      1.2605                 1.2788                 0.0293

                     40                     41                     42
                      A                      A                      A
 Frequencies --    975.8836               976.0276               977.8423
 Red. masses --      1.3611                 1.3609                 1.3551
 Frc consts  --      0.7638                 0.7638                 0.7634
 IR Inten    --      0.0149                 0.0158                 0.1373

                     43                     44                     45
                      A                      A                      A
 Frequencies --   1000.3931              1000.4387              1001.2061
 Red. masses --      1.2541                 1.2541                 1.2522
 Frc consts  --      0.7395                 0.7395                 0.7396
 IR Inten    --      0.0786                 0.0830                 0.0003

                     46                     47                     48
                      A                      A                      A
 Frequencies --   1015.3630              1015.3734              1015.7554
 Red. masses --      6.3122                 6.3115                 6.3104
 Frc consts  --      3.8342                 3.8339                 3.8361
 IR Inten    --      4.3645                 4.3672                 0.0488

                     49                     50                     51
                      A                      A                      A
 Frequencies --   1052.7308              1052.7478              1052.9264
 Red. masses --      3.3142                 3.3183                 3.2531
 Frc consts  --      2.1640                 2.1668                 2.1249
 IR Inten    --      2.0808                 2.0782                 0.0380

                     52                     53                     54
                      A                      A                      A
 Frequencies --   1107.9201              1108.1113              1109.4557
 Red. masses --      1.8839                 1.8783                 1.6548
 Frc consts  --      1.3625                 1.3589                 1.2001
 IR Inten    --      4.2706                 4.1266                 2.9453

                     55                     56                     57
                      A                      A                      A
 Frequencies --   1110.8075              1110.8148              1115.9742
 Red. masses --      2.1964                 2.1924                 2.6138
 Frc consts  --      1.5968                 1.5938                 1.9179
 IR Inten    --      9.4253                 9.4386                 1.1621

                     58                     59                     60
                      A                      A                      A
 Frequencies --   1193.5289              1193.9332              1194.0182
 Red. masses --      1.1034                 1.1000                 1.1002
 Frc consts  --      0.9261                 0.9239                 0.9242
 IR Inten    --      0.0024                 0.1281                 0.1258

                     61                     62                     63
                      A                      A                      A
 Frequencies --   1219.3134              1219.5657              1220.8176
 Red. masses --      1.1476                 1.1479                 1.1473
 Frc consts  --      1.0053                 1.0059                 1.0075
 IR Inten    --      6.0486                 6.0590                 0.3646

                     64                     65                     66
                      A                      A                      A
 Frequencies --   1325.0600              1328.7809              1328.8450
 Red. masses --      3.4963                 3.5028                 3.5126
 Frc consts  --      3.6169                 3.6439                 3.6544
 IR Inten    --      2.6349                 2.4346                 2.4532

                     67                     68                     69
                      A                      A                      A
 Frequencies --   1365.2130              1365.4429              1365.7013
 Red. masses --      1.6544                 1.6477                 1.6436
 Frc consts  --      1.8168                 1.8100                 1.8062
 IR Inten    --      0.2934                 0.9174                 2.1940

                     70                     71                     72
                      A                      A                      A
 Frequencies --   1480.5393              1481.0012              1481.0252
 Red. masses --      2.1103                 2.1150                 2.1157
 Frc consts  --      2.7254                 2.7332                 2.7342
 IR Inten    --     16.6466                 6.6630                 6.5762

                     73                     74                     75
                      A                      A                      A
 Frequencies --   1531.0967              1531.6070              1531.7363
 Red. masses --      2.0150                 1.9983                 1.9967
 Frc consts  --      2.7832                 2.7619                 2.7601
 IR Inten    --      2.0625                10.1294                10.1387

                     76                     77                     78
                      A                      A                      A
 Frequencies --   1630.1852              1630.4610              1630.4854
 Red. masses --      5.1007                 5.1134                 5.1088
 Frc consts  --      7.9864                 8.0091                 8.0021
 IR Inten    --      0.3957                 0.0471                 0.0446

                     79                     80                     81
                      A                      A                      A
 Frequencies --   1646.1829              1646.2130              1647.9883
 Red. masses --      5.2709                 5.2675                 5.2814
 Frc consts  --      8.4157                 8.4105                 8.4510
 IR Inten    --      3.4882                 3.5416                 0.3205

                     82                     83                     84
                      A                      A                      A
 Frequencies --   3176.1184              3176.1551              3176.1658
 Red. masses --      1.0853                 1.0854                 1.0853
 Frc consts  --      6.4508                 6.4510                 6.4508
 IR Inten    --      2.1260                 2.1442                 1.7005

                     85                     86                     87
                      A                      A                      A
 Frequencies --   3182.6753              3182.7015              3182.7675
 Red. masses --      1.0875                 1.0875                 1.0876
 Frc consts  --      6.4902                 6.4904                 6.4912
 IR Inten    --      0.7612                 0.8061                 0.1252

                     88                     89                     90
                      A                      A                      A
 Frequencies --   3192.8454              3192.8784              3193.0002
 Red. masses --      1.0916                 1.0916                 1.0917
 Frc consts  --      6.5567                 6.5568                 6.5578
 IR Inten    --     10.5319                10.9388                46.4372

                     91                     92                     93
                      A                      A                      A
 Frequencies --   3203.8615              3203.9070              3204.2839
 Red. masses --      1.0941                 1.0941                 1.0942
 Frc consts  --      6.6168                 6.6169                 6.6192
 IR Inten    --     41.0725                40.9681                 4.7727

                     94                     95                     96
                      A                      A                      A
 Frequencies --   3210.0129              3210.0515              3210.9264
 Red. masses --      1.0957                 1.0957                 1.0957
 Frc consts  --      6.6522                 6.6524                 6.6557
 IR Inten    --     20.3811                20.5276                16.2539

 - Thermochemistry -
 -------------------
 Temperature   298.150 Kelvin.  Pressure   1.00000 Atm.
 Atom     1 has atomic number  6 and mass  12.00000

 Molecular mass:   262.09114 amu.
 Principal axes and moments of inertia in atomic units:
                           1         2         3
     Eigenvalues --  5161.133855164.556388679.38661
           X            0.99976   0.02168  -0.00000
           Y           -0.02168   0.99976   0.00003
           Z            0.00000  -0.00003   1.00000
 This molecule is an asymmetric top.
 Rotational symmetry number  1.
 Warning -- assumption of classical behavior for rotation
           may cause significant error
 Rotational temperatures (Kelvin)      0.01678     0.01677     0.00998
 Rotational constants (GHZ):           0.34968     0.34945     0.20793
 Zero-point vibrational energy     720008.4 (Joules/Mol)
                                  172.08613 (Kcal/Mol)
 Warning -- explicit consideration of  21 degrees of freedom as
           vibrations may cause significant error
 Vibrational temperatures:     34.17    36.14    56.52    76.69    76.93
          (Kelvin)            101.68   261.50   291.62   291.68   353.32
                              373.66   374.13   588.28   588.40   593.41
                              600.34   617.86   618.10   733.07   733.28
                              743.22   910.33   910.37   911.27   995.45
                             1014.53  1014.65  1024.92  1025.02  1026.50
                             1095.58  1097.68  1097.73  1246.36  1246.57
                             1250.19  1342.34  1342.57  1344.46  1404.08
                             1404.29  1406.90  1439.34  1439.41  1440.51
                             1460.88  1460.90  1461.45  1514.64  1514.67
                             1514.93  1594.05  1594.32  1596.26  1598.20
                             1598.21  1605.64  1717.22  1717.80  1717.93
                             1754.32  1754.68  1756.48  1906.47  1911.82
                             1911.91  1964.24  1964.57  1964.94  2130.17
                             2130.83  2130.86  2202.91  2203.64  2203.83
                             2345.47  2345.87  2345.90  2368.49  2368.53
                             2371.09  4569.73  4569.78  4569.79  4579.16
                             4579.20  4579.29  4593.79  4593.84  4594.02
                             4609.64  4609.71  4610.25  4618.49  4618.55
                             4619.81

 Zero-point correction=                           0.274237 (Hartree/Particle)
 Thermal correction to Energy=                    0.290149
 Thermal correction to Enthalpy=                  0.291093
 Thermal correction to Gibbs Free Energy=         0.227881
 Sum of electronic and zero-point Energies=          -1036.023999
 Sum of electronic and thermal Energies=             -1036.008087
 Sum of electronic and thermal Enthalpies=           -1036.007143
 Sum of electronic and thermal Free Energies=        -1036.070355

                     E (Thermal)             CV                S
                      KCal/Mol        Cal/Mol-Kelvin    Cal/Mol-Kelvin
 Total                  182.071             62.530            133.040
 Electronic               0.000              0.000              0.000
 Translational            0.889              2.981             42.590
 Rotational               0.889              2.981             33.803
 Vibrational            180.294             56.569             56.647
 Vibration     1          0.593              1.985              6.293
 Vibration     2          0.593              1.985              6.182
 Vibration     3          0.594              1.981              5.295
 Vibration     4          0.596              1.976              4.691
 Vibration     5          0.596              1.976              4.685
 Vibration     6          0.598              1.968              4.135
 Vibration     7          0.630              1.865              2.310
 Vibration     8          0.639              1.836              2.109
 Vibration     9          0.639              1.836              2.108
 Vibration    10          0.660              1.770              1.762
 Vibration    11          0.668              1.746              1.664
 Vibration    12          0.668              1.746              1.662
 Vibration    13          0.773              1.451              0.931
 Vibration    14          0.773              1.451              0.930
 Vibration    15          0.776              1.443              0.918
 Vibration    16          0.780              1.433              0.901
 Vibration    17          0.791              1.406              0.861
 Vibration    18          0.791              1.406              0.860
 Vibration    19          0.865              1.229              0.635
 Vibration    20          0.865              1.229              0.634
 Vibration    21          0.872              1.213              0.618

                           ! Non-Optimized Parameters !
 Normal termination of Gaussian 16 at Sun Aug 23 06:28:44 2020.
 Gaussian 16:  ES64L-G16RevA.03 25-Dec-2016

 ----------------------------------------------------------------------
 # TD(NStates=10, Root=1) B3LYP/6-31G* scf=qc volume pop=NPA density=cu
 rrent Geom=AllCheck Guess=Read
 ----------------------------------------------------------------------

 Structure from the checkpoint file:  "phosphine_1_conf153.chk"
 -------------------
 Title Card Required
 -------------------
 Charge =  0 Multiplicity = 1

                         Standard orientation:
 ---------------------------------------------------------------------
 Center     Atomic      Atomic             Coordinates (Angstroms)
 Number     Number       Type             X           Y           Z
 ---------------------------------------------------------------------
      1          6           0       -2.099900   -3.728985    0.652918
      2          6           0       -1.326686   -3.824985   -0.506015
      3          6           0       -0.714835   -2.687858   -1.033004
      4          6           0       -0.848238   -1.439051   -0.402653
      5          6           0       -1.630097   -1.355674    0.759638
      6          6           0       -2.252447   -2.492014    1.281187
      7         15           0        0.000385   -0.000046   -1.206928
      8          6           0       -0.822152    1.454299   -0.403154
      9          6           0       -0.356421    2.094087    0.755663
     10          6           0       -1.030101    3.201179    1.276408
     11          6           0       -2.180942    3.683126    0.650877
     12          6           0       -2.653318    3.057109   -0.504639
     13          6           0       -1.973728    1.958812   -1.030916
     14          6           0        1.670975   -0.015316   -0.402771
     15          6           0        1.989304   -0.732011    0.760917
     16          6           0        3.284666   -0.702690    1.282208
     17          6           0        4.280091    0.045953    0.652282
     18          6           0        3.977014    0.761470   -0.508039
     19          6           0        2.686188    0.722638   -1.034750
     20          1           0       -2.585902   -4.611876    1.059857
     21          1           0       -1.208804   -4.783020   -1.005816
     22          1           0       -0.130285   -2.767039   -1.946868
     23          1           0       -1.757073   -0.399045    1.257467
     24          1           0       -2.856864   -2.409149    2.181060
     25          1           0        0.538026    1.729328    1.251665
     26          1           0       -0.654075    3.686582    2.173597
     27          1           0       -2.703127    4.545394    1.057208
     28          1           0       -3.544573    3.430514   -1.002391
     29          1           0       -2.336676    1.488786   -1.942223
     30          1           0        1.223920   -1.318667    1.260035
     31          1           0        3.514864   -1.265905    2.183183
     32          1           0        5.287768    0.066568    1.059042
     33          1           0        4.748107    1.341007   -1.009114
     34          1           0        2.462670    1.266691   -1.949713
 ---------------------------------------------------------------------

 SCF Done:  E(RB3LYP) =  -1036.29823583     a.u. after    1 cycles

 Excitation energies and oscillator strengths:

 Excited State   1:      Singlet-A      4.5095 eV  274.94 nm  f=0.1272  <S**2>=0.000
      69 -> 70         0.69705
 This state for optimization and/or second-order correction.
 Total Energy, E(TD-HF/TD-DFT) =  -1036.13251400
 Copying the excited state density for this state as the 1-particle RhoCI density.

 Excited State   2:      Singlet-A      4.5123 eV  274.77 nm  f=0.1284  <S**2>=0.000
      69 -> 71         0.69700

 Excited State   3:      Singlet-A      4.7576 eV  260.60 nm  f=0.0022  <S**2>=0.000
      67 -> 70        -0.12376
      68 -> 71        -0.12440
      69 -> 72         0.67462

 Excited State   4:      Singlet-A      5.0578 eV  245.13 nm  f=0.0002  <S**2>=0.000
      66 -> 70        -0.16648
      69 -> 74         0.62982

 Excited State   5:      Singlet-A      5.0590 eV  245.08 nm  f=0.0002  <S**2>=0.000
      66 -> 71         0.16728
      69 -> 75         0.62911

 Excited State   6:      Singlet-A      5.1513 eV  240.69 nm  f=0.0085  <S**2>=0.000
      69 -> 73         0.67908

 Excited State   7:      Singlet-A      5.4274 eV  228.44 nm  f=0.0147  <S**2>=0.000
      63 -> 72         0.16611
      64 -> 74        -0.14222
      65 -> 75         0.13937
      67 -> 70         0.42501
      68 -> 71         0.41664
      69 -> 72         0.16529

 Excited State   8:      Singlet-A      5.5138 eV  224.86 nm  f=0.0005  <S**2>=0.000
      63 -> 74         0.14378
      64 -> 70        -0.11851
      64 -> 72        -0.22190
      64 -> 75        -0.11649
      65 -> 71         0.11664
      65 -> 72         0.17495
      65 -> 74         0.11544
      66 -> 70         0.22654
      67 -> 70         0.20711
      67 -> 71        -0.16780
      68 -> 70        -0.17351
      68 -> 71        -0.21496
      68 -> 72         0.16302
      69 -> 74         0.28705

 Excited State   9:      Singlet-A      5.5152 eV  224.80 nm  f=0.0004  <S**2>=0.000
      63 -> 75         0.14439
      64 -> 71        -0.11275
      64 -> 72         0.17536
      64 -> 74        -0.11425
      65 -> 70        -0.11685
      65 -> 72         0.22200
      65 -> 75        -0.11613
      66 -> 71        -0.22477
      67 -> 70         0.16547
      67 -> 71         0.21072
      67 -> 72         0.16386
      68 -> 70         0.21471
      68 -> 71        -0.17655
      69 -> 75         0.28830

 Excited State  10:      Singlet-A      5.6181 eV  220.69 nm  f=0.0009  <S**2>=0.000
      67 -> 71        -0.47612
      68 -> 70         0.48677

 The electronic state is 1-A.
 Alpha  occ. eigenvalues --  -77.08113 -10.19447 -10.19446 -10.19446 -10.19149
 Alpha  occ. eigenvalues --  -10.19146 -10.19143 -10.19119 -10.19117 -10.19115
 Alpha  occ. eigenvalues --  -10.19033 -10.19031 -10.19027 -10.19009 -10.19007
 Alpha  occ. eigenvalues --  -10.19005 -10.18964 -10.18961 -10.18958  -6.54843
 Alpha  occ. eigenvalues --   -4.71102  -4.71102  -4.70601  -0.85560  -0.84847
 Alpha  occ. eigenvalues --   -0.84844  -0.76669  -0.74366  -0.74365  -0.74329
 Alpha  occ. eigenvalues --   -0.73821  -0.73820  -0.64436  -0.60337  -0.60307
 Alpha  occ. eigenvalues --   -0.60305  -0.59207  -0.59206  -0.55448  -0.51436
 Alpha  occ. eigenvalues --   -0.51434  -0.49296  -0.45440  -0.45439  -0.44774
 Alpha  occ. eigenvalues --   -0.44344  -0.44344  -0.44068  -0.41947  -0.41869
 Alpha  occ. eigenvalues --   -0.41867  -0.40379  -0.40376  -0.36844  -0.36353
 Alpha  occ. eigenvalues --   -0.36349  -0.35898  -0.34252  -0.34251  -0.34224
 Alpha  occ. eigenvalues --   -0.31885  -0.31882  -0.26775  -0.25450  -0.25444
 Alpha  occ. eigenvalues --   -0.25243  -0.24704  -0.24703  -0.21146
 Alpha virt. eigenvalues --   -0.01883  -0.01876  -0.00830   0.00173   0.00425
 Alpha virt. eigenvalues --    0.00432   0.06876   0.06890   0.09493   0.11038
 Alpha virt. eigenvalues --    0.11040   0.13902   0.14528   0.14530   0.15165

 Mulliken charges:
               1
     1  C   -0.145279
     2  C   -0.125036
     3  C   -0.154979
     4  C   -0.099583
     5  C   -0.167374
     6  C   -0.115374
     7  P    0.450572
     8  C   -0.088070
     9  C   -0.147546
    10  C   -0.121680
    11  C   -0.123884
    12  C   -0.117317
    13  C   -0.161787
    14  C   -0.133467
    15  C   -0.170687
    16  C   -0.121011
    17  C   -0.166995
    18  C   -0.120742
    19  C   -0.175430
    20  H    0.127060
    21  H    0.129174
    22  H    0.135142
    23  H    0.138794
    24  H    0.131428
    25  H    0.179057
    26  H    0.146413
    27  H    0.145030
    28  H    0.141724
    29  H    0.146085
    30  H    0.132975
    31  H    0.117842
    32  H    0.108455
    33  H    0.113633
    34  H    0.112857
 Sum of Mulliken charges =  -0.00000

 Dipole moment (field-independent basis, Debye):
    X=             -3.2714    Y=              1.8762    Z=             -0.1970  Tot=              3.7763
 Quadrupole moment (field-independent basis, Debye-Ang):
   XX=           -119.5780   YY=           -107.4941   ZZ=           -110.6591
   XY=             -3.5819   XZ=             -0.5574   YZ=              1.2466

 Summary of Natural Population Analysis:

                                       Natural Population
                Natural  -----------------------------------------------
    Atom  No    Charge         Core      Valence    Rydberg      Total
 -----------------------------------------------------------------------
      C    1   -0.24815      1.99909     4.23377    0.01529     6.24815
      C    2   -0.24726      1.99910     4.23325    0.01491     6.24726
      C    3   -0.20470      1.99901     4.19017    0.01552     6.20470
      C    4   -0.42079      1.99888     4.39780    0.02411     6.42079
      C    5   -0.24864      1.99899     4.23234    0.01730     6.24864
      C    6   -0.22291      1.99909     4.20965    0.01417     6.22291
      P    7    1.24217      9.99750     3.71009    0.05024    13.75783
      C    8   -0.38918      1.99891     4.36482    0.02546     6.38918
      C    9   -0.20210      1.99900     4.18695    0.01616     6.20210
      C   10   -0.23312      1.99909     4.21986    0.01417     6.23312
      C   11   -0.20248      1.99909     4.18946    0.01392     6.20248
      C   12   -0.23240      1.99910     4.21914    0.01417     6.23240
      C   13   -0.21054      1.99902     4.19620    0.01532     6.21054
      C   14   -0.48656      1.99887     4.46175    0.02595     6.48656
      C   15   -0.25227      1.99899     4.23535    0.01793     6.25227
      C   16   -0.23399      1.99909     4.22023    0.01467     6.23399
      C   17   -0.29393      1.99909     4.27822    0.01662     6.29393
      C   18   -0.24099      1.99910     4.22700    0.01489     6.24099
      C   19   -0.23902      1.99902     4.22361    0.01639     6.23902
      H   20    0.23392      0.00000     0.76520    0.00088     0.76608
      H   21    0.23723      0.00000     0.76190    0.00087     0.76277
      H   22    0.23587      0.00000     0.76291    0.00121     0.76413
      H   23    0.24092      0.00000     0.75777    0.00131     0.75908
      H   24    0.23842      0.00000     0.76070    0.00088     0.76158
      H   25    0.26305      0.00000     0.73569    0.00126     0.73695
      H   26    0.24549      0.00000     0.75365    0.00086     0.75451
      H   27    0.24156      0.00000     0.75760    0.00084     0.75844
      H   28    0.24243      0.00000     0.75665    0.00092     0.75757
      H   29    0.24023      0.00000     0.75862    0.00115     0.75977
      H   30    0.23722      0.00000     0.76121    0.00156     0.76278
      H   31    0.23226      0.00000     0.76686    0.00088     0.76774
      H   32    0.22578      0.00000     0.77332    0.00090     0.77422
      H   33    0.22941      0.00000     0.76966    0.00093     0.77059
      H   34    0.22306      0.00000     0.77599    0.00095     0.77694
 =======================================================================
   * Total *   -0.00000     45.98001    91.64740    0.37259   138.00000

 Normal termination of Gaussian 16 at Sun Aug 23 06:41:31 2020.
