 Gaussian 16, Revision A.03,

 ---------------------------------
 # opt=CalcAll B3LYP/6-31G* scf=qc
 ---------------------------------

 -------------------
 Title Card Required
 -------------------
 Symbolic Z-matrix:
 Charge =  0 Multiplicity = 1

 SCF Done:  E(RB3LYP) =  -814.852018026     a.u. after    7 cycles
 SCF Done:  E(RB3LYP) =  -814.863479676     a.u. after   15 cycles
 SCF Done:  E(RB3LYP) =  -814.893932928     a.u. after   13 cycles
 SCF Done:  E(RB3LYP) =  -814.899135449     a.u. after   15 cycles
 SCF Done:  E(RB3LYP) =  -814.905565521     a.u. after   13 cycles
 SCF Done:  E(RB3LYP) =  -814.907398054     a.u. after   11 cycles
 SCF Done:  E(RB3LYP) =  -814.907872902     a.u. after   11 cycles
 SCF Done:  E(RB3LYP) =  -814.907917228     a.u. after    7 cycles
 SCF Done:  E(RB3LYP) =  -814.907922431     a.u. after    4 cycles
 SCF Done:  E(RB3LYP) =  -814.907730852     a.u. after   13 cycles
 SCF Done:  E(RB3LYP) =  -814.907940124     a.u. after   11 cycles
 SCF Done:  E(RB3LYP) =  -814.907936631     a.u. after    6 cycles
 SCF Done:  E(RB3LYP) =  -814.907926645     a.u. after   11 cycles
 SCF Done:  E(RB3LYP) =  -814.907944368     a.u. after    9 cycles
 SCF Done:  E(RB3LYP) =  -814.907943842     a.u. after    5 cycles
 SCF Done:  E(RB3LYP) =  -814.907944646     a.u. after    5 cycles
 SCF Done:  E(RB3LYP) =  -814.907944677     a.u. after    2 cycles
 Optimization completed.
    -- Stationary point found.
 Normal termination of Gaussian 16 at Sun Aug 23 07:29:18 2020.

 ----------------------------------------------------------------------
 # freq B3LYP/6-31G* scf=qc volume NMR pop=NPA density=current Geom=All
 Check Guess=Read
 ----------------------------------------------------------------------

 Structure from the checkpoint file:  "phosphine_2_conf112.chk"
 -------------------
 Title Card Required
 -------------------
 Charge =  0 Multiplicity = 1

 SCF Done:  E(RB3LYP) =  -814.907944677     a.u. after    1 cycles

      1  C    Isotropic =   173.6466   Anisotropy =    24.6550

      2  C    Isotropic =   164.4696   Anisotropy =    17.3803

      3  C    Isotropic =   160.1794   Anisotropy =    24.7257

      4  C    Isotropic =   157.8450   Anisotropy =    14.5199

      5  H    Isotropic =    30.4917   Anisotropy =     5.9748

      6  H    Isotropic =    30.9126   Anisotropy =     6.1996

      7  P    Isotropic =   400.9792   Anisotropy =    25.9926

      8  C    Isotropic =   159.5560   Anisotropy =    29.2826

      9  H    Isotropic =    30.7489   Anisotropy =     5.9347

     10  H    Isotropic =    30.3330   Anisotropy =     4.9749

     11  C    Isotropic =   162.7242   Anisotropy =    18.0086

     12  C    Isotropic =   162.5151   Anisotropy =    19.8673

     13  C    Isotropic =   172.9994   Anisotropy =    20.9720

     14  C    Isotropic =   162.3583   Anisotropy =    28.3621

     15  H    Isotropic =    30.9492   Anisotropy =     6.8089

     16  H    Isotropic =    30.5185   Anisotropy =     5.9573

     17  C    Isotropic =   164.1607   Anisotropy =    21.3418

     18  C    Isotropic =   162.2109   Anisotropy =    23.2032

     19  C    Isotropic =   173.7340   Anisotropy =    24.2367

     20  H    Isotropic =    31.0767   Anisotropy =    10.1424

     21  H    Isotropic =    31.3308   Anisotropy =     7.6722

     22  H    Isotropic =    31.3041   Anisotropy =     8.5756

     23  H    Isotropic =    30.0913   Anisotropy =     6.2252

     24  H    Isotropic =    30.9659   Anisotropy =     6.5103

     25  H    Isotropic =    30.5293   Anisotropy =     7.8015

     26  H    Isotropic =    30.8413   Anisotropy =     4.0644

     27  H    Isotropic =    30.6815   Anisotropy =     4.4652

     28  H    Isotropic =    30.3012   Anisotropy =     9.0871

     29  H    Isotropic =    30.4658   Anisotropy =     9.6010

     30  H    Isotropic =    30.6880   Anisotropy =     6.6342

     31  H    Isotropic =    31.4604   Anisotropy =     7.0285

     32  H    Isotropic =    31.1925   Anisotropy =    10.3682

     33  H    Isotropic =    30.2510   Anisotropy =     6.8111

     34  H    Isotropic =    30.8330   Anisotropy =     5.7337

     35  H    Isotropic =    30.7107   Anisotropy =     5.8416

     36  H    Isotropic =    30.7709   Anisotropy =     6.0688

     37  H    Isotropic =    30.7881   Anisotropy =     6.3653

     38  H    Isotropic =    31.2335   Anisotropy =     7.5843

     39  H    Isotropic =    31.0287   Anisotropy =    10.5462

     40  H    Isotropic =    31.2393   Anisotropy =     7.7774

  Exact polarizability: 172.359   0.959 157.177  -1.378   1.251 130.966
 Approx polarizability: 211.175   3.120 211.931  -5.693   4.117 200.623

                      1                      2                      3
                      A                      A                      A
 Frequencies --     11.4042                25.7208                35.9683
 Red. masses --      2.9198                 3.3203                 2.3973
 Frc consts  --      0.0002                 0.0013                 0.0018
 IR Inten    --      0.0069                 0.0214                 0.0143

                      4                      5                      6
                      A                      A                      A
 Frequencies --     48.4112                56.3890                74.2148
 Red. masses --      2.4182                 1.7634                 1.7628
 Frc consts  --      0.0033                 0.0033                 0.0057
 IR Inten    --      0.0329                 0.0087                 0.0256

                      7                      8                      9
                      A                      A                      A
 Frequencies --     86.5034               113.6952               125.2398
 Red. masses --      2.4256                 2.8584                 3.0883
 Frc consts  --      0.0107                 0.0218                 0.0285
 IR Inten    --      0.1346                 0.2195                 0.3115

                     10                     11                     12
                      A                      A                      A
 Frequencies --    127.7391               152.6882               194.8048
 Red. masses --      2.2572                 3.0392                 1.9715
 Frc consts  --      0.0217                 0.0417                 0.0441
 IR Inten    --      0.0390                 0.1800                 0.0165

                     13                     14                     15
                      A                      A                      A
 Frequencies --    219.5972               239.2727               245.3831
 Red. masses --      2.6895                 1.3233                 1.1931
 Frc consts  --      0.0764                 0.0446                 0.0423
 IR Inten    --      0.0662                 0.2974                 0.0282

                     16                     17                     18
                      A                      A                      A
 Frequencies --    249.0749               267.5279               273.5964
 Red. masses --      1.1702                 2.2840                 2.0498
 Frc consts  --      0.0428                 0.0963                 0.0904
 IR Inten    --      0.0019                 0.0533                 0.0154

                     19                     20                     21
                      A                      A                      A
 Frequencies --    302.9271               341.4056               363.5600
 Red. masses --      2.8099                 1.9594                 3.7106
 Frc consts  --      0.1519                 0.1346                 0.2890
 IR Inten    --      0.0824                 0.0613                 0.6618

                     22                     23                     24
                      A                      A                      A
 Frequencies --    407.5209               450.3863               486.8383
 Red. masses --      2.7481                 1.8600                 2.8335
 Frc consts  --      0.2689                 0.2223                 0.3957
 IR Inten    --      0.1924                 1.0262                 1.3437

                     25                     26                     27
                      A                      A                      A
 Frequencies --    608.6654               642.9996               708.4186
 Red. masses --      3.4022                 3.0317                 3.3949
 Frc consts  --      0.7426                 0.7385                 1.0038
 IR Inten    --      2.0061                 7.5761                 5.4137

                     28                     29                     30
                      A                      A                      A
 Frequencies --    717.7388               754.7145               767.5309
 Red. masses --      1.2714                 1.1664                 1.2039
 Frc consts  --      0.3859                 0.3914                 0.4179
 IR Inten    --     13.8674                 0.5114                 0.9587

                     31                     32                     33
                      A                      A                      A
 Frequencies --    777.6894               790.8500               807.5605
 Red. masses --      1.3875                 1.5154                 1.9894
 Frc consts  --      0.4944                 0.5584                 0.7644
 IR Inten    --      2.5112                 2.2842                 6.1580

                     34                     35                     36
                      A                      A                      A
 Frequencies --    865.3475               886.4609               901.2535
 Red. masses --      1.9231                 1.2864                 1.5022
 Frc consts  --      0.8485                 0.5956                 0.7189
 IR Inten    --      1.7048                 1.7691                 3.9583

                     37                     38                     39
                      A                      A                      A
 Frequencies --    909.2927               922.0928               929.5151
 Red. masses --      1.6209                 1.4739                 1.3694
 Frc consts  --      0.7896                 0.7384                 0.6971
 IR Inten    --      2.5381                 3.7707                10.5825

                     40                     41                     42
                      A                      A                      A
 Frequencies --    987.7739              1012.8198              1021.2740
 Red. masses --      2.3270                 2.8831                 3.6128
 Frc consts  --      1.3377                 1.7425                 2.2201
 IR Inten    --      2.7621                 1.2002                 3.8132

                     43                     44                     45
                      A                      A                      A
 Frequencies --   1060.3023              1062.5792              1067.7473
 Red. masses --      1.1681                 2.4788                 1.8986
 Frc consts  --      0.7737                 1.6490                 1.2753
 IR Inten    --      0.5096                 0.5958                 0.1260

                     46                     47                     48
                      A                      A                      A
 Frequencies --   1075.7559              1091.4665              1096.6687
 Red. masses --      1.5183                 1.3208                 2.0650
 Frc consts  --      1.0352                 0.9270                 1.4633
 IR Inten    --      2.1516                 4.1442                 7.5522

                     49                     50                     51
                      A                      A                      A
 Frequencies --   1111.9676              1114.8693              1124.5758
 Red. masses --      1.6303                 1.5053                 1.9645
 Frc consts  --      1.1877                 1.1024                 1.4638
 IR Inten    --      3.7806                 2.3877                11.9271

                     52                     53                     54
                      A                      A                      A
 Frequencies --   1225.9116              1230.6287              1251.0837
 Red. masses --      1.4518                 1.4884                 1.4542
 Frc consts  --      1.2855                 1.3281                 1.3411
 IR Inten    --      0.8936                 1.6039                 2.4169

                     55                     56                     57
                      A                      A                      A
 Frequencies --   1253.2073              1261.4191              1263.4210
 Red. masses --      1.3351                 1.3007                 1.3542
 Frc consts  --      1.2354                 1.2194                 1.2736
 IR Inten    --      3.5620                 0.7302                 0.5844

                     58                     59                     60
                      A                      A                      A
 Frequencies --   1316.6864              1318.8103              1325.8802
 Red. masses --      1.2761                 1.2043                 1.1856
 Frc consts  --      1.3035                 1.2341                 1.2280
 IR Inten    --      3.7866                 0.8280                 2.8335

                     61                     62                     63
                      A                      A                      A
 Frequencies --   1344.1732              1346.8854              1349.0801
 Red. masses --      1.2552                 1.1573                 1.1501
 Frc consts  --      1.3362                 1.2369                 1.2333
 IR Inten    --      7.4962                 1.2312                 0.5712

                     64                     65                     66
                      A                      A                      A
 Frequencies --   1350.9527              1352.2319              1394.4490
 Red. masses --      1.0869                 1.3316                 1.3137
 Frc consts  --      1.1688                 1.4346                 1.5050
 IR Inten    --      1.2721                 2.4522                11.9194

                     67                     68                     69
                      A                      A                      A
 Frequencies --   1401.7079              1408.0336              1417.5625
 Red. masses --      1.4708                 1.4946                 1.5321
 Frc consts  --      1.7026                 1.7458                 1.8140
 IR Inten    --      2.2090                 2.5788                 4.0049

                     70                     71                     72
                      A                      A                      A
 Frequencies --   1440.3706              1440.5976              1444.3434
 Red. masses --      1.2420                 1.2415                 1.2460
 Frc consts  --      1.5182                 1.5180                 1.5315
 IR Inten    --      1.3193                 1.0231                 8.5140

                     73                     74                     75
                      A                      A                      A
 Frequencies --   1489.2161              1490.3721              1494.4741
 Red. masses --      1.0860                 1.0849                 1.0885
 Frc consts  --      1.4191                 1.4197                 1.4324
 IR Inten    --      1.2274                 3.7254                11.0587

                     76                     77                     78
                      A                      A                      A
 Frequencies --   1515.3983              1518.1709              1518.9029
 Red. masses --      1.0687                 1.0689                 1.0760
 Frc consts  --      1.4460                 1.4516                 1.4626
 IR Inten    --      0.5929                 0.2164                 0.1396

                     79                     80                     81
                      A                      A                      A
 Frequencies --   1519.6521              1525.7811              1526.3267
 Red. masses --      1.0703                 1.0690                 1.0648
 Frc consts  --      1.4563                 1.4662                 1.4615
 IR Inten    --      4.2081                 0.1387                 1.0799

                     82                     83                     84
                      A                      A                      A
 Frequencies --   1529.7382              1529.8537              1531.0345
 Red. masses --      1.0411                 1.0412                 1.0487
 Frc consts  --      1.4354                 1.4357                 1.4483
 IR Inten    --      6.3506                 5.6304                 6.5479

                     85                     86                     87
                      A                      A                      A
 Frequencies --   1540.1748              1541.3508              1542.1801
 Red. masses --      1.0822                 1.0841                 1.0615
 Frc consts  --      1.5125                 1.5175                 1.4874
 IR Inten    --      3.5287                 3.7675                 9.7078

                     88                     89                     90
                      A                      A                      A
 Frequencies --   3014.5211              3017.2524              3023.2014
 Red. masses --      1.0593                 1.0620                 1.0600
 Frc consts  --      5.6714                 5.6963                 5.7080
 IR Inten    --     13.6478                19.3855                24.3084

                     91                     92                     93
                      A                      A                      A
 Frequencies --   3023.4933              3023.9457              3024.7242
 Red. masses --      1.0620                 1.0613                 1.0626
 Frc consts  --      5.7201                 5.7178                 5.7276
 IR Inten    --      9.9623                19.2634                12.9494

                     94                     95                     96
                      A                      A                      A
 Frequencies --   3027.8660              3029.2186              3037.2787
 Red. masses --      1.0698                 1.0599                 1.0553
 Frc consts  --      5.7789                 5.7305                 5.7357
 IR Inten    --     26.1238                 4.1817                28.9498

                     97                     98                     99
                      A                      A                      A
 Frequencies --   3039.4527              3040.2696              3041.7876
 Red. masses --      1.0367                 1.0419                 1.0412
 Frc consts  --      5.6429                 5.6742                 5.6761
 IR Inten    --     42.7265                20.5703                52.4760

                    100                    101                    102
                      A                      A                      A
 Frequencies --   3046.2292              3048.5214              3054.1710
 Red. masses --      1.0939                 1.0992                 1.0965
 Frc consts  --      5.9809                 6.0189                 6.0260
 IR Inten    --     25.8923                 2.2612                56.5709

                    103                    104                    105
                      A                      A                      A
 Frequencies --   3056.7438              3061.4254              3068.6509
 Red. masses --      1.1001                 1.1016                 1.1016
 Frc consts  --      6.0563                 6.0832                 6.1117
 IR Inten    --     40.8056                12.5237                39.5089

                    106                    107                    108
                      A                      A                      A
 Frequencies --   3070.9191              3075.9214              3083.0691
 Red. masses --      1.1019                 1.1004                 1.1045
 Frc consts  --      6.1224                 6.1339                 6.1854
 IR Inten    --     30.6151                19.9868                38.3055

                    109                    110                    111
                      A                      A                      A
 Frequencies --   3099.5032              3104.9239              3106.1534
 Red. masses --      1.1012                 1.1028                 1.1029
 Frc consts  --      6.2333                 6.2639                 6.2697
 IR Inten    --     51.9302                63.1200                75.2596

                    112                    113                    114
                      A                      A                      A
 Frequencies --   3110.1522              3110.6643              3131.3436
 Red. masses --      1.1015                 1.1018                 1.1003
 Frc consts  --      6.2774                 6.2817                 6.3568
 IR Inten    --     38.6641                46.4296                29.0956

 - Thermochemistry -
 -------------------
 Temperature   298.150 Kelvin.  Pressure   1.00000 Atm.
 Atom     1 has atomic number  6 and mass  12.00000

 Molecular mass:   202.18504 amu.
 Principal axes and moments of inertia in atomic units:
                           1         2         3
     Eigenvalues --  3054.682344995.279077212.52335
           X            0.99999  -0.00378   0.00066
           Y            0.00379   0.99998  -0.00524
           Z           -0.00064   0.00524   0.99999
 This molecule is an asymmetric top.
 Rotational symmetry number  1.
 Warning -- assumption of classical behavior for rotation
           may cause significant error
 Rotational temperatures (Kelvin)      0.02835     0.01734     0.01201
 Rotational constants (GHZ):           0.59081     0.36129     0.25022
 Zero-point vibrational energy     976387.6 (Joules/Mol)
                                  233.36225 (Kcal/Mol)
 Warning -- explicit consideration of  25 degrees of freedom as
           vibrations may cause significant error
 Vibrational temperatures:     16.41    37.01    51.75    69.65    81.13
          (Kelvin)            106.78   124.46   163.58   180.19   183.79
                              219.68   280.28   315.95   344.26   353.05
                              358.36   384.91   393.64   435.84   491.21
                              523.08   586.33   648.01   700.45   875.73
                              925.13  1019.26  1032.67  1085.87  1104.31
                             1118.92  1137.86  1161.90  1245.04  1275.42
                             1296.70  1308.27  1326.69  1337.36  1421.19
                             1457.22  1469.39  1525.54  1528.81  1536.25
                             1547.77  1570.38  1577.86  1599.87  1604.05
                             1618.01  1763.81  1770.60  1800.03  1803.09
                             1814.90  1817.78  1894.42  1897.47  1907.65
                             1933.97  1937.87  1941.03  1943.72  1945.56
                             2006.30  2016.75  2025.85  2039.56  2072.37
                             2072.70  2078.09  2142.65  2144.31  2150.21
                             2180.32  2184.31  2185.36  2186.44  2195.26
                             2196.04  2200.95  2201.12  2202.82  2215.97
                             2217.66  2218.85  4337.22  4341.15  4349.71
                             4350.13  4350.78  4351.90  4356.42  4358.37
                             4369.97  4373.09  4374.27  4376.45  4382.84
                             4386.14  4394.27  4397.97  4404.71  4415.10
                             4418.37  4425.56  4435.85  4459.49  4467.29
                             4469.06  4474.82  4475.55  4505.31

 Zero-point correction=                           0.371886 (Hartree/Particle)
 Thermal correction to Energy=                    0.390616
 Thermal correction to Enthalpy=                  0.391560
 Thermal correction to Gibbs Free Energy=         0.321729
 Sum of electronic and zero-point Energies=           -814.536058
 Sum of electronic and thermal Energies=              -814.517329
 Sum of electronic and thermal Enthalpies=            -814.516385
 Sum of electronic and thermal Free Energies=         -814.586216

                     E (Thermal)             CV                S
                      KCal/Mol        Cal/Mol-Kelvin    Cal/Mol-Kelvin
 Total                  245.115             66.347            146.973
 Electronic               0.000              0.000              0.000
 Translational            0.889              2.981             41.817
 Rotational               0.889              2.981             33.064
 Vibrational            243.338             60.385             72.092
 Vibration     1          0.593              1.987              7.750
 Vibration     2          0.593              1.985              6.135
 Vibration     3          0.594              1.982              5.470
 Vibration     4          0.595              1.978              4.881
 Vibration     5          0.596              1.975              4.580
 Vibration     6          0.599              1.966              4.038
 Vibration     7          0.601              1.959              3.738
 Vibration     8          0.607              1.938              3.205
 Vibration     9          0.610              1.928              3.018
 Vibration    10          0.611              1.925              2.980
 Vibration    11          0.619              1.900              2.638
 Vibration    12          0.635              1.847              2.182
 Vibration    13          0.647              1.811              1.962
 Vibration    14          0.657              1.780              1.808
 Vibration    15          0.660              1.770              1.764
 Vibration    16          0.662              1.764              1.737
 Vibration    17          0.673              1.733              1.612
 Vibration    18          0.676              1.722              1.573
 Vibration    19          0.694              1.668              1.401
 Vibration    20          0.721              1.593              1.206
 Vibration    21          0.737              1.547              1.107
 Vibration    22          0.772              1.454              0.935
 Vibration    23          0.809              1.360              0.795
 Vibration    24          0.843              1.279              0.692
 Vibration    25          0.968              1.013              0.435

 Optimization completed.
    -- Stationary point found.
 Normal termination of Gaussian 16 at Sun Aug 23 07:36:40 2020.
 Gaussian 16:  ES64L-G16RevA.03 25-Dec-2016

 ----------------------------------------------------------------------
 # TD(NStates=10, Root=1) B3LYP/6-31G* scf=qc volume pop=NPA density=cu
 rrent Geom=AllCheck Guess=Read
 ----------------------------------------------------------------------

 Structure from the checkpoint file:  "phosphine_2_conf113.chk"
 -------------------
 Title Card Required
 -------------------
 Charge =  0 Multiplicity = 1

                         Standard orientation:
 ---------------------------------------------------------------------
 Center     Atomic      Atomic             Coordinates (Angstroms)
 Number     Number       Type             X           Y           Z
 ---------------------------------------------------------------------
      1          6           0       -4.872734   -1.542245   -0.071453
      2          6           0       -3.398559   -1.528373   -0.488038
      3          6           0       -2.439571   -1.518205    0.710090
      4          6           0       -0.945918   -1.513575    0.330798
      5          1           0       -0.339348   -1.747124    1.215825
      6          1           0       -0.756088   -2.311916   -0.400414
      7         15           0       -0.358866    0.096502   -0.448481
      8          6           0       -0.033703    1.077248    1.126419
      9          1           0       -1.014318    1.235759    1.596201
     10          1           0        0.538538    0.449465    1.822706
     11          6           0        0.676976    2.440740    0.985278
     12          6           0       -0.154285    3.604618    0.411345
     13          6           0       -0.335194    3.612084   -1.111421
     14          6           0        1.380939   -0.384441   -0.980816
     15          1           0        1.243454   -1.067877   -1.830865
     16          1           0        1.830216    0.522018   -1.409341
     17          6           0        2.348122   -1.010504    0.034605
     18          6           0        3.710649   -1.362556   -0.582587
     19          6           0        4.684744   -1.984606    0.423375
     20          1           0       -5.534577   -1.560281   -0.944859
     21          1           0       -5.126401   -0.652872    0.518821
     22          1           0       -5.105918   -2.422185    0.541310
     23          1           0       -3.201076   -0.655060   -1.122111
     24          1           0       -3.184508   -2.410835   -1.108378
     25          1           0       -2.639151   -2.404127    1.330660
     26          1           0       -2.666063   -0.652311    1.349478
     27          1           0        1.599930    2.328464    0.398031
     28          1           0        1.005068    2.731295    1.993073
     29          1           0        0.334852    4.543169    0.706366
     30          1           0       -1.139211    3.613862    0.900215
     31          1           0        0.637508    3.628410   -1.619987
     32          1           0       -0.888913    4.502909   -1.431733
     33          1           0       -0.879322    2.730660   -1.463456
     34          1           0        1.906381   -1.920102    0.463374
     35          1           0        2.507791   -0.321757    0.875278
     36          1           0        4.157503   -0.455400   -1.013659
     37          1           0        3.558887   -2.054795   -1.422919
     38          1           0        4.883740   -1.300827    1.257864
     39          1           0        5.645574   -2.224866   -0.046042
     40          1           0        4.279655   -2.912314    0.846208
 ---------------------------------------------------------------------

 SCF Done:  E(RB3LYP) =  -814.907944677     a.u. after    1 cycles

 Excitation energies and oscillator strengths:

 Excited State   1:      Singlet-A      6.4600 eV  191.93 nm  f=0.1135  <S**2>=0.000
      57 -> 58         0.69476
 This state for optimization and/or second-order correction.
 Total Energy, E(TD-HF/TD-DFT) =  -814.670543529
 Copying the excited state density for this state as the 1-particle RhoCI density.

 Excited State   2:      Singlet-A      6.6461 eV  186.55 nm  f=0.1000  <S**2>=0.000
      57 -> 59         0.69449

 Excited State   3:      Singlet-A      7.0081 eV  176.92 nm  f=0.0377  <S**2>=0.000
      57 -> 60         0.69628

 Excited State   4:      Singlet-A      7.5399 eV  164.44 nm  f=0.0130  <S**2>=0.000
      57 -> 61         0.66190
      57 -> 63         0.20954

 Excited State   5:      Singlet-A      7.7107 eV  160.80 nm  f=0.0158  <S**2>=0.000
      57 -> 62         0.66147
      57 -> 64        -0.13622
      57 -> 65        -0.14315

 Excited State   6:      Singlet-A      7.8216 eV  158.51 nm  f=0.0225  <S**2>=0.000
      57 -> 61        -0.20366
      57 -> 63         0.63351
      57 -> 64        -0.10986
      57 -> 65         0.16876

 Excited State   7:      Singlet-A      7.9473 eV  156.01 nm  f=0.0260  <S**2>=0.000
      57 -> 62         0.10560
      57 -> 63         0.15138
      57 -> 64         0.64062
      57 -> 65        -0.20892

 Excited State   8:      Singlet-A      8.1594 eV  151.95 nm  f=0.0041  <S**2>=0.000
      57 -> 62         0.16845
      57 -> 63        -0.12940
      57 -> 64         0.20998
      57 -> 65         0.62629

 Excited State   9:      Singlet-A      8.3017 eV  149.35 nm  f=0.0527  <S**2>=0.000
      56 -> 58        -0.12128
      57 -> 66         0.67720

 Excited State  10:      Singlet-A      8.3740 eV  148.06 nm  f=0.0169  <S**2>=0.000
      55 -> 58        -0.18460
      55 -> 59        -0.27459
      56 -> 58         0.57152
      56 -> 59        -0.17043
      57 -> 66         0.11965

 The electronic state is 1-A.
 Alpha  occ. eigenvalues --  -77.06261 -10.18175 -10.18114 -10.18078 -10.18026
 Alpha  occ. eigenvalues --  -10.18022 -10.17999 -10.17963 -10.17588 -10.17337
 Alpha  occ. eigenvalues --  -10.17291 -10.16870 -10.16222  -6.53029  -4.69290
 Alpha  occ. eigenvalues --   -4.69275  -4.68774  -0.79907  -0.78803  -0.78484
 Alpha  occ. eigenvalues --   -0.74034  -0.71563  -0.71226  -0.65488  -0.62835
 Alpha  occ. eigenvalues --   -0.62165  -0.58082  -0.57510  -0.56558  -0.51291
 Alpha  occ. eigenvalues --   -0.47068  -0.45780  -0.45245  -0.43731  -0.42779
 Alpha  occ. eigenvalues --   -0.42159  -0.42050  -0.41749  -0.40579  -0.39771
 Alpha  occ. eigenvalues --   -0.38715  -0.37947  -0.36886  -0.36188  -0.35331
 Alpha  occ. eigenvalues --   -0.34877  -0.33833  -0.33739  -0.33074  -0.32684
 Alpha  occ. eigenvalues --   -0.32592  -0.32274  -0.32046  -0.31426  -0.29046
 Alpha  occ. eigenvalues --   -0.28758  -0.20874
 Alpha virt. eigenvalues --    0.05855   0.06356   0.07977   0.09758   0.10575
 Alpha virt. eigenvalues --    0.10916   0.11513   0.11818   0.12353   0.13925
 Alpha virt. eigenvalues --    0.14305   0.14573   0.14955   0.15303   0.15918

 Mulliken charges:
               1
     1  C   -0.438983
     2  C   -0.231259
     3  C   -0.209513
     4  C   -0.427536
     5  H    0.163696
     6  H    0.139042
     7  P    0.327103
     8  C   -0.429880
     9  H    0.183856
    10  H    0.186688
    11  C   -0.233345
    12  C   -0.239112
    13  C   -0.438369
    14  C   -0.387453
    15  H    0.135618
    16  H    0.126882
    17  C   -0.263592
    18  C   -0.241257
    19  C   -0.444626
    20  H    0.137884
    21  H    0.137871
    22  H    0.138329
    23  H    0.126088
    24  H    0.111270
    25  H    0.103129
    26  H    0.098027
    27  H    0.114292
    28  H    0.100971
    29  H    0.131415
    30  H    0.128173
    31  H    0.134773
    32  H    0.127464
    33  H    0.157135
    34  H    0.138944
    35  H    0.135204
    36  H    0.135314
    37  H    0.133585
    38  H    0.143204
    39  H    0.146408
    40  H    0.142560
 Sum of Mulliken charges =  -0.00000

 Dipole moment (field-independent basis, Debye):
    X=              1.2629    Y=             -0.6860    Z=              0.7706  Tot=              1.6307
 Quadrupole moment (field-independent basis, Debye-Ang):
   XX=            -98.3131   YY=            -97.1553   ZZ=            -95.2413
   XY=             -2.1157   XZ=              0.4574   YZ=              1.3464

 Summary of Natural Population Analysis:

                                       Natural Population
                Natural  -----------------------------------------------
    Atom  No    Charge         Core      Valence    Rydberg      Total
 -----------------------------------------------------------------------
      C    1   -0.67345      1.99946     4.66614    0.00784     6.67345
      C    2   -0.45807      1.99935     4.44738    0.01135     6.45807
      C    3   -0.46437      1.99932     4.45084    0.01420     6.46437
      C    4   -0.81496      1.99931     4.79110    0.02455     6.81496
      H    5    0.25945      0.00000     0.73750    0.00305     0.74055
      H    6    0.23563      0.00000     0.75909    0.00528     0.76437
      P    7    1.01195      9.99765     3.87405    0.11635    13.98805
      C    8   -0.75652      1.99928     4.73991    0.01732     6.75652
      H    9    0.26536      0.00000     0.73267    0.00197     0.73464
      H   10    0.27241      0.00000     0.72560    0.00199     0.72759
      C   11   -0.46531      1.99931     4.45126    0.01473     6.46531
      C   12   -0.45726      1.99935     4.44698    0.01093     6.45726
      C   13   -0.67544      1.99945     4.66634    0.00965     6.67544
      C   14   -0.85449      1.99932     4.83275    0.02242     6.85449
      H   15    0.23960      0.00000     0.75643    0.00397     0.76040
      H   16    0.23932      0.00000     0.74869    0.01199     0.76068
      C   17   -0.45370      1.99930     4.44216    0.01224     6.45370
      C   18   -0.44997      1.99934     4.43944    0.01119     6.44997
      C   19   -0.67507      1.99946     4.66795    0.00767     6.67507
      H   20    0.22917      0.00000     0.76957    0.00127     0.77083
      H   21    0.22157      0.00000     0.77563    0.00280     0.77843
      H   22    0.22290      0.00000     0.77531    0.00179     0.77710
      H   23    0.21871      0.00000     0.77578    0.00550     0.78129
      H   24    0.21502      0.00000     0.77862    0.00636     0.78498
      H   25    0.21845      0.00000     0.77239    0.00916     0.78155
      H   26    0.20782      0.00000     0.78064    0.01154     0.79218
      H   27    0.21241      0.00000     0.77636    0.01123     0.78759
      H   28    0.21415      0.00000     0.77557    0.01028     0.78585
      H   29    0.23324      0.00000     0.76420    0.00256     0.76676
      H   30    0.22421      0.00000     0.77377    0.00202     0.77579
      H   31    0.22095      0.00000     0.77384    0.00521     0.77905
      H   32    0.22174      0.00000     0.77399    0.00427     0.77826
      H   33    0.22222      0.00000     0.77626    0.00152     0.77778
      H   34    0.22743      0.00000     0.77052    0.00206     0.77257
      H   35    0.22207      0.00000     0.77493    0.00300     0.77793
      H   36    0.22956      0.00000     0.76763    0.00281     0.77044
      H   37    0.22892      0.00000     0.76872    0.00236     0.77108
      H   38    0.22493      0.00000     0.77397    0.00110     0.77507
      H   39    0.23476      0.00000     0.76420    0.00104     0.76524
      H   40    0.22465      0.00000     0.77425    0.00110     0.77535
 =======================================================================
   * Total *   -0.00000     33.98990    79.61242    0.39768   114.00000

 Normal termination of Gaussian 16 at Sun Aug 23 07:44:31 2020.
