 Gaussian 16, Revision A.03,

 ---------------------------------
 # opt=CalcAll B3LYP/6-31G* scf=qc
 ---------------------------------

 -------------------
 Title Card Required
 -------------------
 Symbolic Z-matrix:
 Charge =  0 Multiplicity = 1

 SCF Done:  E(RB3LYP) =  -1036.28305441     a.u. after    8 cycles
 SCF Done:  E(RB3LYP) =  -1036.29519842     a.u. after   17 cycles
 SCF Done:  E(RB3LYP) =  -1036.29706417     a.u. after   17 cycles
 SCF Done:  E(RB3LYP) =  -1036.29771135     a.u. after   13 cycles
 SCF Done:  E(RB3LYP) =  -1036.29800349     a.u. after   15 cycles
 SCF Done:  E(RB3LYP) =  -1036.29816742     a.u. after   15 cycles
 SCF Done:  E(RB3LYP) =  -1036.29801402     a.u. after   11 cycles
 SCF Done:  E(RB3LYP) =  -1036.29823275     a.u. after   13 cycles
 SCF Done:  E(RB3LYP) =  -1036.29823045     a.u. after    5 cycles
 SCF Done:  E(RB3LYP) =  -1036.29823486     a.u. after    5 cycles
 SCF Done:  E(RB3LYP) =  -1036.29823823     a.u. after    3 cycles
 SCF Done:  E(RB3LYP) =  -1036.29823287     a.u. after    2 cycles
 SCF Done:  E(RB3LYP) =  -1036.29822977     a.u. after    3 cycles
 SCF Done:  E(RB3LYP) =  -1036.29822903     a.u. after    4 cycles
 SCF Done:  E(RB3LYP) =  -1036.29822943     a.u. after    2 cycles
 SCF Done:  E(RB3LYP) =  -1036.29822903     a.u. after    2 cycles
 SCF Done:  E(RB3LYP) =  -1036.29823031     a.u. after    3 cycles
 SCF Done:  E(RB3LYP) =  -1036.29823045     a.u. after    2 cycles
 Optimization completed.
    -- Stationary point found.
 Normal termination of Gaussian 16 at Sun Aug 23 04:28:15 2020.

 ----------------------------------------------------------------------
 # freq B3LYP/6-31G* scf=qc volume NMR pop=NPA density=current Geom=All
 Check Guess=Read
 ----------------------------------------------------------------------

 Structure from the checkpoint file:  "phosphine_1_conf112.chk"
 -------------------
 Title Card Required
 -------------------
 Charge =  0 Multiplicity = 1

 SCF Done:  E(RB3LYP) =  -1036.29823045     a.u. after    1 cycles

      1  C    Isotropic =    68.1916   Anisotropy =   167.2445

      2  C    Isotropic =    68.6829   Anisotropy =   163.8829

      3  C    Isotropic =    62.6492   Anisotropy =   174.0546

      4  C    Isotropic =    56.0936   Anisotropy =   179.4840

      5  C    Isotropic =    61.0709   Anisotropy =   164.1941

      6  C    Isotropic =    68.7337   Anisotropy =   164.0963

      7  P    Isotropic =   361.6315   Anisotropy =    39.9386

      8  C    Isotropic =    56.1981   Anisotropy =   179.4238

      9  C    Isotropic =    62.5389   Anisotropy =   174.1526

     10  C    Isotropic =    68.6754   Anisotropy =   163.8976

     11  C    Isotropic =    68.1464   Anisotropy =   167.3669

     12  C    Isotropic =    68.7215   Anisotropy =   164.1415

     13  C    Isotropic =    60.9631   Anisotropy =   164.0809

     14  C    Isotropic =    56.1000   Anisotropy =   179.4895

     15  C    Isotropic =    60.9869   Anisotropy =   164.0657

     16  C    Isotropic =    68.7132   Anisotropy =   164.1313

     17  C    Isotropic =    68.1414   Anisotropy =   167.3389

     18  C    Isotropic =    68.6880   Anisotropy =   163.8780

     19  C    Isotropic =    62.5620   Anisotropy =   174.0593

     20  H    Isotropic =    25.0264   Anisotropy =     3.6313

     21  H    Isotropic =    25.0494   Anisotropy =     6.0889

     22  H    Isotropic =    25.4021   Anisotropy =    12.2552

     23  H    Isotropic =    24.6167   Anisotropy =     9.2699

     24  H    Isotropic =    24.9323   Anisotropy =     4.5858

     25  H    Isotropic =    25.3886   Anisotropy =    12.2168

     26  H    Isotropic =    25.0454   Anisotropy =     6.0863

     27  H    Isotropic =    25.0183   Anisotropy =     3.6437

     28  H    Isotropic =    24.9243   Anisotropy =     4.5876

     29  H    Isotropic =    24.6086   Anisotropy =     9.2411

     30  H    Isotropic =    24.6093   Anisotropy =     9.2461

     31  H    Isotropic =    24.9269   Anisotropy =     4.5889

     32  H    Isotropic =    25.0210   Anisotropy =     3.6416

     33  H    Isotropic =    25.0475   Anisotropy =     6.0848

     34  H    Isotropic =    25.3958   Anisotropy =    12.2068

  Exact polarizability: 224.298   0.119 223.808  -0.032  -0.216 165.197
 Approx polarizability: 331.216   0.275 330.222  -0.069  -0.509 308.361

                      1                      2                      3
                      A                      A                      A
 Frequencies --     21.6609                23.0202                38.0665
 Red. masses --      3.7968                 3.7956                 3.6895
 Frc consts  --      0.0010                 0.0012                 0.0031
 IR Inten    --      0.2832                 0.2798                 0.0022

                      4                      5                      6
                      A                      A                      A
 Frequencies --     53.2113                53.2716                70.6628
 Red. masses --      5.2535                 5.2536                 5.1666
 Frc consts  --      0.0088                 0.0088                 0.0152
 IR Inten    --      0.0833                 0.0863                 0.3086

                      7                      8                      9
                      A                      A                      A
 Frequencies --    181.5117               202.2555               202.8017
 Red. masses --      4.5620                 4.6432                 4.6390
 Frc consts  --      0.0886                 0.1119                 0.1124
 IR Inten    --      0.3519                 1.1314                 1.1384

                     10                     11                     12
                      A                      A                      A
 Frequencies --    245.5842               259.7094               260.0598
 Red. masses --      5.7406                 4.7204                 4.7216
 Frc consts  --      0.2040                 0.1876                 0.1881
 IR Inten    --      0.4832                 0.2230                 0.2272

                     13                     14                     15
                      A                      A                      A
 Frequencies --    408.7443               408.8101               412.4057
 Red. masses --      3.0807                 3.0782                 3.5777
 Frc consts  --      0.3033                 0.3031                 0.3585
 IR Inten    --      1.9929                 1.9456                 0.1543

                     16                     17                     18
                      A                      A                      A
 Frequencies --    417.1256               429.2784               429.5512
 Red. masses --      4.6408                 7.3175                 7.3082
 Frc consts  --      0.4757                 0.7945                 0.7945
 IR Inten    --      0.5690                 7.6913                 7.7332

                     19                     20                     21
                      A                      A                      A
 Frequencies --    509.3484               509.6901               516.2623
 Red. masses --      4.2491                 4.2428                 4.5926
 Frc consts  --      0.6495                 0.6494                 0.7212
 IR Inten    --     26.1162                26.1597                11.9414

                     22                     23                     24
                      A                      A                      A
 Frequencies --    632.7243               632.7485               633.3669
 Red. masses --      6.4271                 6.4273                 6.4369
 Frc consts  --      1.5160                 1.5162                 1.5214
 IR Inten    --      0.1817                 0.1820                 0.0157

                     25                     26                     27
                      A                      A                      A
 Frequencies --    691.8713               705.0670               705.2315
 Red. masses --      6.5803                 5.7180                 5.7309
 Frc consts  --      1.8559                 1.6748                 1.6793
 IR Inten    --      0.7856                 1.1868                 1.1767

                     28                     29                     30
                      A                      A                      A
 Frequencies --    712.2244               712.3208               713.2677
 Red. masses --      2.2003                 2.1991                 2.1360
 Frc consts  --      0.6576                 0.6574                 0.6402
 IR Inten    --     26.2883                26.5568                16.4729

                     31                     32                     33
                      A                      A                      A
 Frequencies --    761.3594               762.8167               762.9527
 Red. masses --      1.6137                 1.6470                 1.6510
 Frc consts  --      0.5511                 0.5646                 0.5662
 IR Inten    --     19.1552                25.0217                24.8121

                     34                     35                     36
                      A                      A                      A
 Frequencies --    866.1881               866.2622               868.7966
 Red. masses --      1.2478                 1.2477                 1.2462
 Frc consts  --      0.5516                 0.5517                 0.5542
 IR Inten    --      0.2294                 0.2231                 0.1318

                     37                     38                     39
                      A                      A                      A
 Frequencies --    932.8433               932.9898               934.2666
 Red. masses --      1.3444                 1.3440                 1.3385
 Frc consts  --      0.6893                 0.6893                 0.6883
 IR Inten    --      1.2645                 1.2666                 0.0279

                     40                     41                     42
                      A                      A                      A
 Frequencies --    975.8192               975.8882               977.6935
 Red. masses --      1.3613                 1.3611                 1.3554
 Frc consts  --      0.7638                 0.7637                 0.7634
 IR Inten    --      0.0165                 0.0169                 0.1394

                     43                     44                     45
                      A                      A                      A
 Frequencies --   1000.3534              1000.3990              1001.1305
 Red. masses --      1.2543                 1.2543                 1.2526
 Frc consts  --      0.7395                 0.7396                 0.7397
 IR Inten    --      0.0766                 0.0794                 0.0001

                     46                     47                     48
                      A                      A                      A
 Frequencies --   1015.3598              1015.3860              1015.7499
 Red. masses --      6.3129                 6.3117                 6.3062
 Frc consts  --      3.8346                 3.8341                 3.8335
 IR Inten    --      4.3397                 4.3643                 0.0667

                     49                     50                     51
                      A                      A                      A
 Frequencies --   1052.6869              1052.7392              1052.9063
 Red. masses --      3.3088                 3.3141                 3.2513
 Frc consts  --      2.1603                 2.1640                 2.1237
 IR Inten    --      2.1145                 2.0818                 0.0408

                     52                     53                     54
                      A                      A                      A
 Frequencies --   1107.7048              1108.0388              1109.4926
 Red. masses --      1.9034                 1.8724                 1.6543
 Frc consts  --      1.3761                 1.3544                 1.1998
 IR Inten    --      4.5801                 4.0449                 2.9297

                     55                     56                     57
                      A                      A                      A
 Frequencies --   1110.7032              1110.8299              1116.0657
 Red. masses --      2.1607                 2.2075                 2.6143
 Frc consts  --      1.5705                 1.6049                 1.9186
 IR Inten    --      9.0010                 9.7091                 1.2160

                     58                     59                     60
                      A                      A                      A
 Frequencies --   1193.4743              1193.8727              1193.9319
 Red. masses --      1.1033                 1.1000                 1.1000
 Frc consts  --      0.9259                 0.9237                 0.9239
 IR Inten    --      0.0016                 0.1331                 0.1265

                     61                     62                     63
                      A                      A                      A
 Frequencies --   1219.0671              1219.4147              1220.7835
 Red. masses --      1.1474                 1.1477                 1.1472
 Frc consts  --      1.0047                 1.0055                 1.0073
 IR Inten    --      6.0404                 6.0818                 0.3426

                     64                     65                     66
                      A                      A                      A
 Frequencies --   1325.0003              1328.6438              1328.7737
 Red. masses --      3.4879                 3.4753                 3.4960
 Frc consts  --      3.6078                 3.6146                 3.6368
 IR Inten    --      2.6434                 2.4543                 2.4258

                     67                     68                     69
                      A                      A                      A
 Frequencies --   1364.9393              1365.2341              1365.5214
 Red. masses --      1.6621                 1.6531                 1.6445
 Frc consts  --      1.8244                 1.8153                 1.8067
 IR Inten    --      0.1483                 0.5518                 2.6952

                     70                     71                     72
                      A                      A                      A
 Frequencies --   1480.5081              1480.9575              1480.9973
 Red. masses --      2.1110                 2.1158                 2.1157
 Frc consts  --      2.7263                 2.7340                 2.7340
 IR Inten    --     16.5036                 6.8475                 6.5028

                     73                     74                     75
                      A                      A                      A
 Frequencies --   1531.0090              1531.4550              1531.5841
 Red. masses --      2.0156                 1.9996                 1.9979
 Frc consts  --      2.7837                 2.7631                 2.7613
 IR Inten    --      1.9958                10.1564                10.1323

                     76                     77                     78
                      A                      A                      A
 Frequencies --   1630.1569              1630.4144              1630.4571
 Red. masses --      5.1021                 5.1134                 5.1141
 Frc consts  --      7.9884                 8.0087                 8.0101
 IR Inten    --      0.3877                 0.0551                 0.0455

                     79                     80                     81
                      A                      A                      A
 Frequencies --   1646.1349              1646.1542              1647.9380
 Red. masses --      5.2731                 5.2707                 5.2835
 Frc consts  --      8.4188                 8.4151                 8.4539
 IR Inten    --      3.5059                 3.4939                 0.3242

                     82                     83                     84
                      A                      A                      A
 Frequencies --   3176.0559              3176.1306              3176.1802
 Red. masses --      1.0854                 1.0853                 1.0853
 Frc consts  --      6.4506                 6.4508                 6.4509
 IR Inten    --      2.1112                 1.9730                 1.8738

                     85                     86                     87
                      A                      A                      A
 Frequencies --   3182.6191              3182.6902              3182.7629
 Red. masses --      1.0875                 1.0875                 1.0876
 Frc consts  --      6.4901                 6.4904                 6.4912
 IR Inten    --      0.7164                 0.7302                 0.2591

                     88                     89                     90
                      A                      A                      A
 Frequencies --   3192.8353              3192.8607              3192.9799
 Red. masses --      1.0916                 1.0916                 1.0917
 Frc consts  --      6.5567                 6.5567                 6.5578
 IR Inten    --     10.4990                10.5746                47.0760

                     91                     92                     93
                      A                      A                      A
 Frequencies --   3203.8756              3203.9458              3204.3044
 Red. masses --      1.0941                 1.0942                 1.0942
 Frc consts  --      6.6170                 6.6176                 6.6196
 IR Inten    --     41.3372                41.5420                 4.8838

                     94                     95                     96
                      A                      A                      A
 Frequencies --   3210.0473              3210.1581              3210.9958
 Red. masses --      1.0957                 1.0956                 1.0956
 Frc consts  --      6.6521                 6.6519                 6.6555
 IR Inten    --     20.0934                19.5547                16.3154

 - Thermochemistry -
 -------------------
 Temperature   298.150 Kelvin.  Pressure   1.00000 Atm.
 Atom     1 has atomic number  6 and mass  12.00000

 Molecular mass:   262.09114 amu.
 Principal axes and moments of inertia in atomic units:
                           1         2         3
     Eigenvalues --  5160.433935166.608998679.32671
           X            0.99981   0.01931  -0.00001
           Y           -0.01931   0.99981  -0.00006
           Z            0.00001   0.00006   1.00000
 This molecule is an asymmetric top.
 Rotational symmetry number  1.
 Warning -- assumption of classical behavior for rotation
           may cause significant error
 Rotational temperatures (Kelvin)      0.01678     0.01676     0.00998
 Rotational constants (GHZ):           0.34973     0.34931     0.20794
 Zero-point vibrational energy     719937.4 (Joules/Mol)
                                  172.06918 (Kcal/Mol)
 Warning -- explicit consideration of  21 degrees of freedom as
           vibrations may cause significant error
 Vibrational temperatures:     31.17    33.12    54.77    76.56    76.65
          (Kelvin)            101.67   261.15   291.00   291.79   353.34
                              373.66   374.17   588.09   588.19   593.36
                              600.15   617.64   618.03   732.84   733.33
                              742.79   910.35   910.38   911.27   995.45
                             1014.43  1014.67  1024.73  1024.87  1026.23
                             1095.43  1097.52  1097.72  1246.25  1246.36
                             1250.00  1342.15  1342.36  1344.20  1403.99
                             1404.09  1406.68  1439.29  1439.35  1440.40
                             1460.88  1460.91  1461.44  1514.58  1514.66
                             1514.90  1593.74  1594.22  1596.31  1598.05
                             1598.24  1605.77  1717.14  1717.72  1717.80
                             1753.97  1754.47  1756.44  1906.38  1911.62
                             1911.81  1963.84  1964.27  1964.68  2130.12
                             2130.77  2130.82  2202.78  2203.42  2203.61
                             2345.43  2345.80  2345.86  2368.42  2368.45
                             2371.02  4569.64  4569.74  4569.81  4579.08
                             4579.18  4579.29  4593.78  4593.81  4593.99
                             4609.66  4609.76  4610.28  4618.54  4618.70
                             4619.91

 Zero-point correction=                           0.274210 (Hartree/Particle)
 Thermal correction to Energy=                    0.290137
 Thermal correction to Enthalpy=                  0.291081
 Thermal correction to Gibbs Free Energy=         0.227660
 Sum of electronic and zero-point Energies=          -1036.024021
 Sum of electronic and thermal Energies=             -1036.008094
 Sum of electronic and thermal Enthalpies=           -1036.007150
 Sum of electronic and thermal Free Energies=        -1036.070570

                     E (Thermal)             CV                S
                      KCal/Mol        Cal/Mol-Kelvin    Cal/Mol-Kelvin
 Total                  182.063             62.539            133.480
 Electronic               0.000              0.000              0.000
 Translational            0.889              2.981             42.590
 Rotational               0.889              2.981             33.803
 Vibrational            180.286             56.577             57.087
 Vibration     1          0.593              1.985              6.476
 Vibration     2          0.593              1.985              6.355
 Vibration     3          0.594              1.982              5.357
 Vibration     4          0.596              1.976              4.694
 Vibration     5          0.596              1.976              4.692
 Vibration     6          0.598              1.968              4.135
 Vibration     7          0.630              1.865              2.313
 Vibration     8          0.639              1.837              2.112
 Vibration     9          0.639              1.836              2.108
 Vibration    10          0.660              1.770              1.762
 Vibration    11          0.668              1.746              1.664
 Vibration    12          0.668              1.746              1.661
 Vibration    13          0.773              1.451              0.931
 Vibration    14          0.773              1.451              0.931
 Vibration    15          0.776              1.443              0.918
 Vibration    16          0.780              1.433              0.902
 Vibration    17          0.791              1.406              0.861
 Vibration    18          0.791              1.406              0.860
 Vibration    19          0.864              1.229              0.635
 Vibration    20          0.865              1.229              0.634
 Vibration    21          0.871              1.214              0.619

                           ! Non-Optimized Parameters !
 Normal termination of Gaussian 16 at Sun Aug 23 04:39:32 2020.
 Gaussian 16:  ES64L-G16RevA.03 25-Dec-2016

 ----------------------------------------------------------------------
 # TD(NStates=10, Root=1) B3LYP/6-31G* scf=qc volume pop=NPA density=cu
 rrent Geom=AllCheck Guess=Read
 ----------------------------------------------------------------------

 Structure from the checkpoint file:  "phosphine_1_conf113.chk"
 -------------------
 Title Card Required
 -------------------
 Charge =  0 Multiplicity = 1

                         Standard orientation:
 ---------------------------------------------------------------------
 Center     Atomic      Atomic             Coordinates (Angstroms)
 Number     Number       Type             X           Y           Z
 ---------------------------------------------------------------------
      1          6           0        1.531046   -3.997454    0.649906
      2          6           0        0.474941   -3.331233    1.273412
      3          6           0       -0.003257   -2.126563    0.753022
      4          6           0        0.565860   -1.571730   -0.403406
      5          6           0        1.618849   -2.260428   -1.029282
      6          6           0        2.104323   -3.457385   -0.503332
      7         15           0       -0.000517    0.000474   -1.206615
      8          6           0       -1.644805    0.296139   -0.402565
      9          6           0       -1.838114    1.053409    0.762911
     10          6           0       -3.120118    1.242275    1.283833
     11          6           0       -4.227413    0.674449    0.651690
     12          6           0       -4.048961   -0.079071   -0.510426
     13          6           0       -2.769799   -0.257849   -1.036697
     14          6           0        1.078203    1.275938   -0.402015
     15          6           0        1.160345    2.527961   -1.034708
     16          6           0        1.954903    3.545860   -0.507695
     17          6           0        2.697359    3.322449    0.653770
     18          6           0        2.636047    2.078843    1.284484
     19          6           0        1.831398    1.063487    0.762780
     20          1           0        1.901060   -4.935245    1.056019
     21          1           0        0.020745   -3.748363    2.168773
     22          1           0       -0.825815   -1.618470    1.247304
     23          1           0        2.057645   -1.856318   -1.938836
     24          1           0        2.922217   -3.973486   -0.999533
     25          1           0       -0.984907    1.501003    1.263712
     26          1           0       -3.252343    1.834069    2.186191
     27          1           0       -5.224338    0.823581    1.058133
     28          1           0       -4.906627   -0.518532   -1.013224
     29          1           0       -2.640915   -0.829610   -1.952986
     30          1           0        0.600292    2.703181   -1.950541
     31          1           0        2.002748    4.508934   -1.009416
     32          1           0        3.325027    4.110897    1.060800
     33          1           0        3.215140    1.896520    2.186352
     34          1           0        1.792991    0.100150    1.262397
 ---------------------------------------------------------------------

 SCF Done:  E(RB3LYP) =  -1036.29823045     a.u. after    1 cycles

 Excitation energies and oscillator strengths:

 Excited State   1:      Singlet-A      4.5080 eV  275.03 nm  f=0.1265  <S**2>=0.000
      69 -> 70         0.69710
 This state for optimization and/or second-order correction.
 Total Energy, E(TD-HF/TD-DFT) =  -1036.13256586
 Copying the excited state density for this state as the 1-particle RhoCI density.

 Excited State   2:      Singlet-A      4.5137 eV  274.68 nm  f=0.1288  <S**2>=0.000
      69 -> 71         0.69701

 Excited State   3:      Singlet-A      4.7586 eV  260.55 nm  f=0.0022  <S**2>=0.000
      67 -> 70         0.12432
      68 -> 71         0.12563
      69 -> 72         0.67453

 Excited State   4:      Singlet-A      5.0573 eV  245.16 nm  f=0.0002  <S**2>=0.000
      66 -> 70        -0.16612
      67 -> 71         0.12847
      68 -> 70         0.12858
      69 -> 74         0.63034

 Excited State   5:      Singlet-A      5.0597 eV  245.04 nm  f=0.0002  <S**2>=0.000
      66 -> 71        -0.16765
      67 -> 70         0.13016
      68 -> 71        -0.13017
      69 -> 75         0.62876

 Excited State   6:      Singlet-A      5.1518 eV  240.66 nm  f=0.0085  <S**2>=0.000
      69 -> 73         0.67891

 Excited State   7:      Singlet-A      5.4269 eV  228.46 nm  f=0.0146  <S**2>=0.000
      63 -> 72        -0.16605
      64 -> 74        -0.14660
      65 -> 75        -0.14095
      67 -> 70         0.42903
      68 -> 71         0.41146
      69 -> 72        -0.16553

 Excited State   8:      Singlet-A      5.5129 eV  224.90 nm  f=0.0005  <S**2>=0.000
      63 -> 74         0.14350
      64 -> 70        -0.12966
      64 -> 72         0.22639
      64 -> 75         0.10685
      65 -> 71         0.12683
      65 -> 72         0.16822
      65 -> 74         0.10632
      66 -> 70         0.22789
      67 -> 70        -0.10703
      67 -> 71        -0.23967
      68 -> 70        -0.25356
      68 -> 71         0.11469
      68 -> 72        -0.16102
      69 -> 74         0.28610

 Excited State   9:      Singlet-A      5.5159 eV  224.77 nm  f=0.0004  <S**2>=0.000
      63 -> 75         0.14471
      64 -> 71         0.11810
      64 -> 72        -0.16895
      64 -> 74         0.10250
      65 -> 70         0.12658
      65 -> 72         0.22650
      65 -> 75        -0.10843
      66 -> 71         0.22420
      67 -> 70        -0.23557
      67 -> 71         0.11126
      67 -> 72         0.16332
      68 -> 70         0.11582
      68 -> 71         0.26169
      69 -> 75         0.28865

 Excited State  10:      Singlet-A      5.6177 eV  220.70 nm  f=0.0009  <S**2>=0.000
      65 -> 71         0.10209
      67 -> 71        -0.47121
      68 -> 70         0.49400

 The electronic state is 1-A.
 Alpha  occ. eigenvalues --  -77.08112 -10.19448 -10.19446 -10.19444 -10.19151
 Alpha  occ. eigenvalues --  -10.19149 -10.19139 -10.19120 -10.19117 -10.19112
 Alpha  occ. eigenvalues --  -10.19034 -10.19033 -10.19025 -10.19010 -10.19008
 Alpha  occ. eigenvalues --  -10.19002 -10.18966 -10.18964 -10.18955  -6.54842
 Alpha  occ. eigenvalues --   -4.71101  -4.71101  -4.70600  -0.85560  -0.84848
 Alpha  occ. eigenvalues --   -0.84842  -0.76669  -0.74367  -0.74364  -0.74329
 Alpha  occ. eigenvalues --   -0.73822  -0.73820  -0.64436  -0.60339  -0.60307
 Alpha  occ. eigenvalues --   -0.60303  -0.59207  -0.59206  -0.55449  -0.51436
 Alpha  occ. eigenvalues --   -0.51433  -0.49296  -0.45441  -0.45437  -0.44775
 Alpha  occ. eigenvalues --   -0.44344  -0.44343  -0.44068  -0.41947  -0.41869
 Alpha  occ. eigenvalues --   -0.41866  -0.40381  -0.40374  -0.36842  -0.36356
 Alpha  occ. eigenvalues --   -0.36347  -0.35898  -0.34253  -0.34250  -0.34224
 Alpha  occ. eigenvalues --   -0.31886  -0.31881  -0.26770  -0.25454  -0.25441
 Alpha  occ. eigenvalues --   -0.25241  -0.24705  -0.24702  -0.21148
 Alpha virt. eigenvalues --   -0.01888  -0.01873  -0.00827   0.00174   0.00420
 Alpha virt. eigenvalues --    0.00435   0.06871   0.06899   0.09492   0.11038
 Alpha virt. eigenvalues --    0.11042   0.13900   0.14528   0.14531   0.15165

 Mulliken charges:
               1
     1  C   -0.121379
     2  C   -0.120671
     3  C   -0.147659
     4  C   -0.083583
     5  C   -0.158695
     6  C   -0.118040
     7  P    0.450644
     8  C   -0.130797
     9  C   -0.167267
    10  C   -0.121983
    11  C   -0.163087
    12  C   -0.119515
    13  C   -0.176266
    14  C   -0.106459
    15  C   -0.157225
    16  C   -0.125580
    17  C   -0.151731
    18  C   -0.115316
    19  C   -0.170936
    20  H    0.147259
    21  H    0.148003
    22  H    0.179037
    23  H    0.149006
    24  H    0.143645
    25  H    0.139532
    26  H    0.120539
    27  H    0.111745
    28  H    0.115999
    29  H    0.115062
    30  H    0.129972
    31  H    0.124868
    32  H    0.121543
    33  H    0.127154
    34  H    0.132179
 Sum of Mulliken charges =  -0.00000

 Dipole moment (field-independent basis, Debye):
    X=              2.1918    Y=             -3.0835    Z=             -0.1994  Tot=              3.7884
 Quadrupole moment (field-independent basis, Debye-Ang):
   XX=           -119.8280   YY=           -107.2583   ZZ=           -110.6456
   XY=             -3.1218   XZ=             -0.0220   YZ=             -1.3869

 Summary of Natural Population Analysis:

                                       Natural Population
                Natural  -----------------------------------------------
    Atom  No    Charge         Core      Valence    Rydberg      Total
 -----------------------------------------------------------------------
      C    1   -0.19706      1.99909     4.18423    0.01374     6.19706
      C    2   -0.23127      1.99909     4.21808    0.01410     6.23127
      C    3   -0.20264      1.99900     4.18756    0.01608     6.20264
      C    4   -0.38076      1.99891     4.35670    0.02515     6.38076
      C    5   -0.20546      1.99902     4.19127    0.01518     6.20546
      C    6   -0.23361      1.99910     4.22033    0.01418     6.23361
      P    7    1.24239      9.99750     3.70987    0.05025    13.75761
      C    8   -0.48004      1.99887     4.45504    0.02613     6.48004
      C    9   -0.24446      1.99899     4.22772    0.01774     6.24446
      C   10   -0.23554      1.99909     4.22178    0.01467     6.23554
      C   11   -0.28566      1.99909     4.27016    0.01640     6.28566
      C   12   -0.23852      1.99910     4.22466    0.01477     6.23852
      C   13   -0.23950      1.99902     4.22414    0.01635     6.23950
      C   14   -0.43571      1.99887     4.41261    0.02423     6.43571
      C   15   -0.20916      1.99901     4.19446    0.01568     6.20916
      C   16   -0.24862      1.99910     4.23451    0.01502     6.24862
      C   17   -0.26184      1.99909     4.24706    0.01568     6.26184
      C   18   -0.22309      1.99909     4.20975    0.01425     6.22309
      C   19   -0.25625      1.99899     4.23969    0.01757     6.25625
      H   20    0.24253      0.00000     0.75665    0.00082     0.75747
      H   21    0.24620      0.00000     0.75294    0.00086     0.75380
      H   22    0.26310      0.00000     0.73568    0.00122     0.73690
      H   23    0.24194      0.00000     0.75688    0.00118     0.75806
      H   24    0.24342      0.00000     0.75568    0.00090     0.75658
      H   25    0.24084      0.00000     0.75758    0.00158     0.75916
      H   26    0.23353      0.00000     0.76559    0.00088     0.76647
      H   27    0.22720      0.00000     0.77190    0.00091     0.77280
      H   28    0.23042      0.00000     0.76864    0.00094     0.76958
      H   29    0.22403      0.00000     0.77502    0.00095     0.77597
      H   30    0.23316      0.00000     0.76566    0.00118     0.76684
      H   31    0.23522      0.00000     0.76391    0.00088     0.76478
      H   32    0.23153      0.00000     0.76758    0.00089     0.76847
      H   33    0.23645      0.00000     0.76267    0.00088     0.76355
      H   34    0.23724      0.00000     0.76143    0.00133     0.76276
 =======================================================================
   * Total *   -0.00000     45.98001    91.64742    0.37257   138.00000

 Normal termination of Gaussian 16 at Sun Aug 23 04:50:30 2020.
