 Gaussian 16, Revision A.03,

 ---------------------------------
 # opt=CalcAll B3LYP/6-31G* scf=qc
 ---------------------------------

 -------------------
 Title Card Required
 -------------------
 Symbolic Z-matrix:
 Charge =  0 Multiplicity = 1

 SCF Done:  E(RB3LYP) =  -1333.96831533     a.u. after    8 cycles
 SCF Done:  E(RB3LYP) =  -1333.97861132     a.u. after   13 cycles
 SCF Done:  E(RB3LYP) =  -1333.98187070     a.u. after   17 cycles
 SCF Done:  E(RB3LYP) =  -1333.97970081     a.u. after   21 cycles
 SCF Done:  E(RB3LYP) =  -1333.99447063     a.u. after   10 cycles
 SCF Done:  E(RB3LYP) =  -1333.99859488     a.u. after   17 cycles
 SCF Done:  E(RB3LYP) =  -1333.99896785     a.u. after   13 cycles
 SCF Done:  E(RB3LYP) =  -1333.99897511     a.u. after    5 cycles
 SCF Done:  E(RB3LYP) =  -1333.99897601     a.u. after    3 cycles
 SCF Done:  E(RB3LYP) =  -1333.99897631     a.u. after    2 cycles
 SCF Done:  E(RB3LYP) =  -1333.99897634     a.u. after    2 cycles
 Optimization completed.
    -- Stationary point found.
 Normal termination of Gaussian 16 at Sun Aug 23 13:46:26 2020.

 ----------------------------------------------------------------------
 # freq B3LYP/6-31G* scf=qc volume NMR pop=NPA density=current Geom=All
 Check Guess=Read
 ----------------------------------------------------------------------

 Structure from the checkpoint file:  "phosphine_5_conf232.chk"
 -------------------
 Title Card Required
 -------------------
 Charge =  0 Multiplicity = 1

 SCF Done:  E(RB3LYP) =  -1333.99897634     a.u. after    1 cycles

      1  C    Isotropic =    79.9328   Anisotropy =   137.4239

      2  C    Isotropic =    59.0097   Anisotropy =   162.7737

      3  C    Isotropic =    61.6587   Anisotropy =   173.4808

      4  C    Isotropic =    60.6873   Anisotropy =   171.9390

      5  C    Isotropic =    80.0624   Anisotropy =   136.7301

      6  C    Isotropic =    32.6643   Anisotropy =    98.8312

      7  F    Isotropic =   295.7856   Anisotropy =   113.0751

      8  P    Isotropic =   366.1305   Anisotropy =    39.7321

      9  C    Isotropic =    61.5853   Anisotropy =   173.5337

     10  C    Isotropic =    60.7684   Anisotropy =   171.8442

     11  C    Isotropic =    80.0826   Anisotropy =   136.7459

     12  C    Isotropic =    32.6795   Anisotropy =    98.7884

     13  C    Isotropic =    79.9443   Anisotropy =   137.4507

     14  C    Isotropic =    59.0890   Anisotropy =   162.8184

     15  F    Isotropic =   295.8188   Anisotropy =   112.9199

     16  C    Isotropic =    61.5957   Anisotropy =   173.5237

     17  C    Isotropic =    59.0097   Anisotropy =   162.7466

     18  C    Isotropic =    79.9188   Anisotropy =   137.4255

     19  C    Isotropic =    32.6544   Anisotropy =    98.8377

     20  C    Isotropic =    80.0694   Anisotropy =   136.7157

     21  C    Isotropic =    60.6837   Anisotropy =   171.8856

     22  F    Isotropic =   295.7791   Anisotropy =   113.1022

     23  H    Isotropic =    25.3586   Anisotropy =     4.2554

     24  H    Isotropic =    24.6174   Anisotropy =     8.9150

     25  H    Isotropic =    25.3576   Anisotropy =    12.0169

     26  H    Isotropic =    25.4631   Anisotropy =     5.7383

     27  H    Isotropic =    25.3688   Anisotropy =    12.0380

     28  H    Isotropic =    25.4670   Anisotropy =     5.7396

     29  H    Isotropic =    25.3612   Anisotropy =     4.2556

     30  H    Isotropic =    24.6237   Anisotropy =     8.9323

     31  H    Isotropic =    24.6166   Anisotropy =     8.9152

     32  H    Isotropic =    25.3566   Anisotropy =     4.2616

     33  H    Isotropic =    25.4675   Anisotropy =     5.7332

     34  H    Isotropic =    25.3621   Anisotropy =    12.0036

  Exact polarizability: 226.299   0.134 225.973   0.053   0.158 167.782
 Approx polarizability: 338.032   0.297 337.426   0.114   0.358 314.994

                      1                      2                      3
                      A                      A                      A
 Frequencies --     23.4034                24.7725                37.4303
 Red. masses --      4.0687                 4.0882                 8.9412
 Frc consts  --      0.0013                 0.0015                 0.0074
 IR Inten    --      0.2482                 0.2565                 0.1019

                      4                      5                      6
                      A                      A                      A
 Frequencies --     37.5983                40.4682                50.6147
 Red. masses --      9.0323                 3.7434                 9.9517
 Frc consts  --      0.0075                 0.0036                 0.0150
 IR Inten    --      0.0922                 0.0057                 0.1145

                      7                      8                      9
                      A                      A                      A
 Frequencies --    133.0081               145.4907               145.8069
 Red. masses --      8.0544                 8.3697                 8.3759
 Frc consts  --      0.0840                 0.1044                 0.1049
 IR Inten    --      0.0235                 0.5208                 0.5142

                     10                     11                     12
                      A                      A                      A
 Frequencies --    209.0183               218.8648               219.5148
 Red. masses --      8.0486                 6.9853                 6.9951
 Frc consts  --      0.2072                 0.1971                 0.1986
 IR Inten    --      0.2901                 0.5289                 0.5286

                     13                     14                     15
                      A                      A                      A
 Frequencies --    307.9503               336.0069               336.1160
 Red. masses --      8.4309                 8.3166                 8.3042
 Frc consts  --      0.4711                 0.5532                 0.5527
 IR Inten    --      1.0311                 0.0451                 0.0434

                     16                     17                     18
                      A                      A                      A
 Frequencies --    397.1561               404.0997               404.1816
 Red. masses --      7.7402                 8.0316                 8.0188
 Frc consts  --      0.7193                 0.7727                 0.7718
 IR Inten    --      0.3037                10.1074                10.1076

                     19                     20                     21
                      A                      A                      A
 Frequencies --    420.6619               420.7590               424.7502
 Red. masses --      3.2844                 3.2766                 3.1355
 Frc consts  --      0.3424                 0.3418                 0.3333
 IR Inten    --      1.1646                 1.0775                 0.0244

                     22                     23                     24
                      A                      A                      A
 Frequencies --    434.9956               435.2461               463.5971
 Red. masses --      6.1416                 6.1539                 6.6460
 Frc consts  --      0.6847                 0.6869                 0.8416
 IR Inten    --     18.8955                19.0732                 7.4005

                     25                     26                     27
                      A                      A                      A
 Frequencies --    533.0179               533.1709               535.5738
 Red. masses --      2.8108                 2.8119                 2.9070
 Frc consts  --      0.4705                 0.4710                 0.4913
 IR Inten    --     21.9221                21.8131                13.4874

                     28                     29                     30
                      A                      A                      A
 Frequencies --    608.0762               630.0000               630.0493
 Red. masses --      7.9093                 7.8318                 7.8285
 Frc consts  --      1.7231                 1.8314                 1.8310
 IR Inten    --      0.0096                 0.0364                 0.0392

                     31                     32                     33
                      A                      A                      A
 Frequencies --    648.2415               648.3781               648.4542
 Red. masses --      7.2771                 7.3787                 7.3810
 Frc consts  --      1.8017                 1.8276                 1.8286
 IR Inten    --      0.0049                 0.1274                 0.1297

                     34                     35                     36
                      A                      A                      A
 Frequencies --    715.1490               715.6507               715.7318
 Red. masses --      4.8100                 4.8251                 4.8308
 Frc consts  --      1.4494                 1.4560                 1.4580
 IR Inten    --      1.0842                 3.9403                 3.9355

                     37                     38                     39
                      A                      A                      A
 Frequencies --    835.7450               835.8183               836.8416
 Red. masses --      1.2633                 1.2616                 1.3272
 Frc consts  --      0.5199                 0.5193                 0.5476
 IR Inten    --      0.5338                 0.4525                11.3545

                     40                     41                     42
                      A                      A                      A
 Frequencies --    839.5434               839.5716               839.8190
 Red. masses --      3.2646                 3.2750                 4.0246
 Frc consts  --      1.3557                 1.3601                 1.6724
 IR Inten    --     62.0237                61.3340                18.5859

                     43                     44                     45
                      A                      A                      A
 Frequencies --    843.6519               843.7739               844.1162
 Red. masses --      2.0003                 1.9681                 1.6798
 Frc consts  --      0.8388                 0.8255                 0.7052
 IR Inten    --      9.9885                10.2402                12.0826

                     46                     47                     48
                      A                      A                      A
 Frequencies --    958.6585               958.7370               959.8651
 Red. masses --      1.2560                 1.2560                 1.2588
 Frc consts  --      0.6801                 0.6802                 0.6833
 IR Inten    --      0.1676                 0.1646                 0.3306

                     49                     50                     51
                      A                      A                      A
 Frequencies --    969.9396               969.9771               973.5090
 Red. masses --      1.3353                 1.3352                 1.3192
 Frc consts  --      0.7402                 0.7402                 0.7366
 IR Inten    --      0.0356                 0.0330                 0.3106

                     52                     53                     54
                      A                      A                      A
 Frequencies --   1034.7188              1034.8118              1035.1896
 Red. masses --      3.0269                 3.0329                 3.0246
 Frc consts  --      1.9094                 1.9135                 1.9097
 IR Inten    --      7.9565                 7.8754                 0.1444

                     55                     56                     57
                      A                      A                      A
 Frequencies --   1102.9052              1103.1757              1108.8243
 Red. masses --      3.6672                 3.6666                 3.5536
 Frc consts  --      2.6282                 2.6291                 2.5742
 IR Inten    --     19.3440                19.1228                 1.8946

                     58                     59                     60
                      A                      A                      A
 Frequencies --   1127.5340              1127.7591              1127.9698
 Red. masses --      1.3306                 1.3302                 1.3293
 Frc consts  --      0.9967                 0.9968                 0.9965
 IR Inten    --      0.9478                 2.1478                 5.9405

                     61                     62                     63
                      A                      A                      A
 Frequencies --   1195.2232              1195.6654              1199.5186
 Red. masses --      1.1835                 1.1857                 1.1805
 Frc consts  --      0.9962                 0.9987                 1.0008
 IR Inten    --     60.6327                61.1714                 2.6582

                     64                     65                     66
                      A                      A                      A
 Frequencies --   1285.3227              1285.4878              1286.2150
 Red. masses --      3.7557                 3.7411                 3.7826
 Frc consts  --      3.6557                 3.6424                 3.6870
 IR Inten    --    167.5040               165.9762                38.9355

                     67                     68                     69
                      A                      A                      A
 Frequencies --   1324.1712              1327.2846              1327.8342
 Red. masses --      2.7468                 2.2250                 2.3435
 Frc consts  --      2.8377                 2.3094                 2.4345
 IR Inten    --      8.7982                 3.8881                 3.8770

                     70                     71                     72
                      A                      A                      A
 Frequencies --   1336.7033              1336.9138              1337.1930
 Red. masses --      2.3252                 2.2013                 1.9430
 Frc consts  --      2.4479                 2.3182                 2.0470
 IR Inten    --      0.3429                 0.4043                 0.8389

                     73                     74                     75
                      A                      A                      A
 Frequencies --   1437.9343              1438.0678              1438.2845
 Red. masses --      2.9852                 2.9932                 2.9863
 Frc consts  --      3.6366                 3.6471                 3.6398
 IR Inten    --      6.8649                 2.6136                 2.6479

                     76                     77                     78
                      A                      A                      A
 Frequencies --   1545.5648              1545.7493              1546.5357
 Red. masses --      2.4083                 2.4044                 2.4441
 Frc consts  --      3.3895                 3.3849                 3.4442
 IR Inten    --    116.3265               116.3985                24.4892

                     79                     80                     81
                      A                      A                      A
 Frequencies --   1633.9214              1633.9794              1634.0133
 Red. masses --      6.9690                 6.9572                 6.9598
 Frc consts  --     10.9619                10.9440                10.9485
 IR Inten    --      9.2276                14.7081                10.8361

                     82                     83                     84
                      A                      A                      A
 Frequencies --   1653.5139              1653.5705              1654.3908
 Red. masses --      5.8085                 5.8057                 5.8787
 Frc consts  --      9.3569                 9.3530                 9.4800
 IR Inten    --     82.8565                82.5567                22.5979

                     85                     86                     87
                      A                      A                      A
 Frequencies --   3188.7761              3188.8619              3188.9595
 Red. masses --      1.0892                 1.0892                 1.0892
 Frc consts  --      6.5255                 6.5257                 6.5260
 IR Inten    --      5.6086                 4.1265                 3.6549

                     88                     89                     90
                      A                      A                      A
 Frequencies --   3205.7888              3205.8875              3206.5033
 Red. masses --      1.0878                 1.0878                 1.0879
 Frc consts  --      6.5866                 6.5870                 6.5900
 IR Inten    --      2.0235                 2.0228                 0.3636

                     91                     92                     93
                      A                      A                      A
 Frequencies --   3221.8680              3221.9659              3222.1647
 Red. masses --      1.0942                 1.0942                 1.0940
 Frc consts  --      6.6921                 6.6923                 6.6923
 IR Inten    --      3.4603                 3.0705                11.5199

                     94                     95                     96
                      A                      A                      A
 Frequencies --   3222.6030              3222.6398              3222.8655
 Red. masses --      1.0937                 1.0936                 1.0939
 Frc consts  --      6.6919                 6.6919                 6.6947
 IR Inten    --     12.1988                12.3173                 0.2325

 - Thermochemistry -
 -------------------
 Temperature   298.150 Kelvin.  Pressure   1.00000 Atm.
 Atom     1 has atomic number  6 and mass  12.00000

 Molecular mass:   316.06287 amu.
 Principal axes and moments of inertia in atomic units:
                           1         2         3
     Eigenvalues --  8313.663058323.25257**********
           X            0.99967   0.02575   0.00002
           Y           -0.02575   0.99967   0.00004
           Z           -0.00002  -0.00004   1.00000
 This molecule is an asymmetric top.
 Rotational symmetry number  1.
 Warning -- assumption of classical behavior for rotation
           may cause significant error
 Rotational temperatures (Kelvin)      0.01042     0.01041     0.00597
 Rotational constants (GHZ):           0.21708     0.21683     0.12431
 Zero-point vibrational energy     655298.8 (Joules/Mol)
                                  156.62017 (Kcal/Mol)
 Warning -- explicit consideration of  28 degrees of freedom as
           vibrations may cause significant error
 Vibrational temperatures:     33.67    35.64    53.85    54.10    58.22
          (Kelvin)             72.82   191.37   209.33   209.78   300.73
                              314.90   315.83   443.07   483.44   483.60
                              571.42   581.41   581.53   605.24   605.38
                              611.12   625.86   626.22   667.01   766.89
                              767.11   770.57   874.89   906.43   906.50
                              932.67   932.87   932.98  1028.94  1029.66
                             1029.78  1202.45  1202.56  1204.03  1207.92
                             1207.96  1208.31  1213.83  1214.00  1214.49
                             1379.30  1379.41  1381.03  1395.53  1395.58
                             1400.66  1488.73  1488.86  1489.41  1586.83
                             1587.22  1595.35  1622.27  1622.59  1622.90
                             1719.66  1720.30  1725.84  1849.29  1849.53
                             1850.58  1905.19  1909.67  1910.46  1923.22
                             1923.52  1923.92  2068.87  2069.06  2069.37
                             2223.72  2223.99  2225.12  2350.85  2350.93
                             2350.98  2379.04  2379.12  2380.30  4587.94
                             4588.06  4588.20  4612.42  4612.56  4613.44
                             4635.55  4635.69  4635.98  4636.61  4636.66
                             4636.98

 Zero-point correction=                           0.249590 (Hartree/Particle)
 Thermal correction to Energy=                    0.268019
 Thermal correction to Enthalpy=                  0.268963
 Thermal correction to Gibbs Free Energy=         0.199524
 Sum of electronic and zero-point Energies=          -1333.749386
 Sum of electronic and thermal Energies=             -1333.730957
 Sum of electronic and thermal Enthalpies=           -1333.730013
 Sum of electronic and thermal Free Energies=        -1333.799452

                     E (Thermal)             CV                S
                      KCal/Mol        Cal/Mol-Kelvin    Cal/Mol-Kelvin
 Total                  168.185             71.393            146.147
 Electronic               0.000              0.000              0.000
 Translational            0.889              2.981             43.148
 Rotational               0.889              2.981             35.262
 Vibrational            166.407             65.431             67.737
 Vibration     1          0.593              1.985              6.322
 Vibration     2          0.593              1.985              6.209
 Vibration     3          0.594              1.982              5.391
 Vibration     4          0.594              1.982              5.382
 Vibration     5          0.594              1.981              5.236
 Vibration     6          0.595              1.977              4.793
 Vibration     7          0.613              1.920              2.902
 Vibration     8          0.617              1.908              2.730
 Vibration     9          0.617              1.907              2.726
 Vibration    10          0.642              1.827              2.052
 Vibration    11          0.647              1.812              1.968
 Vibration    12          0.647              1.811              1.963
 Vibration    13          0.698              1.659              1.373
 Vibration    14          0.717              1.604              1.231
 Vibration    15          0.717              1.603              1.231
 Vibration    16          0.764              1.476              0.973
 Vibration    17          0.769              1.461              0.948
 Vibration    18          0.769              1.461              0.947
 Vibration    19          0.783              1.425              0.890
 Vibration    20          0.783              1.425              0.889
 Vibration    21          0.787              1.416              0.876
 Vibration    22          0.796              1.394              0.842
 Vibration    23          0.796              1.393              0.842
 Vibration    24          0.821              1.331              0.756
 Vibration    25          0.888              1.177              0.581
 Vibration    26          0.888              1.177              0.580
 Vibration    27          0.891              1.171              0.575
 Vibration    28          0.967              1.015              0.436

 Optimization completed.
    -- Stationary point found.
 Normal termination of Gaussian 16 at Sun Aug 23 14:00:35 2020.
 Gaussian 16:  ES64L-G16RevA.03 25-Dec-2016

 ----------------------------------------------------------------------
 # TD(NStates=10, Root=1) B3LYP/6-31G* scf=qc volume pop=NPA density=cu
 rrent Geom=AllCheck Guess=Read
 ----------------------------------------------------------------------

 Structure from the checkpoint file:  "phosphine_5_conf233.chk"
 -------------------
 Title Card Required
 -------------------
 Charge =  0 Multiplicity = 1

                         Standard orientation:
 ---------------------------------------------------------------------
 Center     Atomic      Atomic             Coordinates (Angstroms)
 Number     Number       Type             X           Y           Z
 ---------------------------------------------------------------------
      1          6           0       -4.036999   -0.388915    0.700585
      2          6           0       -2.744937   -0.460587    1.218095
      3          6           0       -1.662629    0.161909    0.571873
      4          6           0       -1.915629    0.884215   -0.605154
      5          6           0       -3.204927    0.976173   -1.131326
      6          6           0       -4.244204    0.333093   -0.469566
      7          9           0       -5.492490    0.418019   -0.973094
      8         15           0       -0.000849    0.000249    1.374935
      9          6           0        0.690504   -1.519750    0.572210
     10          6           0        0.185986   -2.105801   -0.599555
     11          6           0        0.751826   -3.268109   -1.125480
     12          6           0        1.834762   -3.840460   -0.468901
     13          6           0        2.362025   -3.294138    0.696035
     14          6           0        1.777178   -2.139813    1.213511
     15          9           0        2.386228   -4.963633   -0.972287
     16          6           0        0.970469    1.358113    0.571595
     17          6           0        0.974516    2.606389    1.218308
     18          6           0        1.683210    3.688968    0.700448
     19          6           0        2.410553    3.507143   -0.470613
     20          6           0        2.445718    2.285832   -1.133002
     21          6           0        1.720930    1.215797   -0.606412
     22          9           0        3.108852    4.545170   -0.974446
     23          1           0       -4.877091   -0.868654    1.192154
     24          1           0       -2.576107   -1.006331    2.143193
     25          1           0       -1.101243    1.387365   -1.117224
     26          1           0       -3.411315    1.535229   -2.038419
     27          1           0       -0.661806   -1.656980   -1.107879
     28          1           0        0.366669   -3.730723   -2.028580
     29          1           0        3.202524   -3.777063    1.183777
     30          1           0        2.169946   -1.716314    2.134680
     31          1           0        0.418643    2.733285    2.144075
     32          1           0        1.689405    4.656162    1.192439
     33          1           0        3.031876    2.184832   -2.040846
     34          1           0        1.747812    0.259089   -1.118858
 ---------------------------------------------------------------------

 SCF Done:  E(RB3LYP) =  -1333.99897634     a.u. after    1 cycles

 Excitation energies and oscillator strengths:

 Excited State   1:      Singlet-A      4.5725 eV  271.15 nm  f=0.1343  <S**2>=0.000
      81 -> 82         0.69337
 This state for optimization and/or second-order correction.
 Total Energy, E(TD-HF/TD-DFT) =  -1333.83094062
 Copying the excited state density for this state as the 1-particle RhoCI density.

 Excited State   2:      Singlet-A      4.5764 eV  270.92 nm  f=0.1355  <S**2>=0.000
      81 -> 83         0.69280

 Excited State   3:      Singlet-A      4.5868 eV  270.31 nm  f=0.0104  <S**2>=0.000
      81 -> 84         0.68810

 Excited State   4:      Singlet-A      4.9050 eV  252.77 nm  f=0.0018  <S**2>=0.000
      81 -> 85         0.67643

 Excited State   5:      Singlet-A      4.9070 eV  252.67 nm  f=0.0016  <S**2>=0.000
      81 -> 86         0.67598

 Excited State   6:      Singlet-A      5.2397 eV  236.62 nm  f=0.0075  <S**2>=0.000
      79 -> 82        -0.10607
      80 -> 83         0.10725
      81 -> 87         0.67228

 Excited State   7:      Singlet-A      5.4166 eV  228.89 nm  f=0.0000  <S**2>=0.000
      75 -> 84        -0.14137
      77 -> 82         0.18272
      78 -> 83        -0.16034
      79 -> 82         0.27745
      79 -> 83         0.29967
      79 -> 85         0.15407
      80 -> 82         0.29996
      80 -> 83        -0.27192
      80 -> 86        -0.13955

 Excited State   8:      Singlet-A      5.4449 eV  227.71 nm  f=0.0019  <S**2>=0.000
      76 -> 82         0.21170
      77 -> 82        -0.11172
      77 -> 83        -0.15029
      77 -> 87        -0.12190
      78 -> 82         0.15082
      78 -> 83        -0.12317
      79 -> 84        -0.30999
      79 -> 86        -0.15285
      80 -> 84         0.39226
      80 -> 85         0.15247
      81 -> 85         0.12454

 Excited State   9:      Singlet-A      5.4463 eV  227.65 nm  f=0.0021  <S**2>=0.000
      76 -> 83         0.20778
      77 -> 82        -0.13713
      77 -> 83         0.11444
      78 -> 82        -0.11800
      78 -> 83        -0.15850
      78 -> 87         0.12163
      79 -> 84         0.38678
      79 -> 85        -0.14472
      80 -> 84         0.31909
      80 -> 86        -0.16032
      81 -> 86         0.12545

 Excited State  10:      Singlet-A      5.6621 eV  218.97 nm  f=0.0033  <S**2>=0.000
      75 -> 84         0.16252
      76 -> 84        -0.10198
      77 -> 82        -0.24690
      78 -> 83         0.23209
      79 -> 83         0.20787
      79 -> 85        -0.21909
      79 -> 86         0.10697
      80 -> 82         0.36333
      80 -> 85         0.11025
      80 -> 86         0.23749

 The electronic state is 1-A.
 Alpha  occ. eigenvalues --  -77.09285 -24.70935 -24.70934 -24.70928 -10.27932
 Alpha  occ. eigenvalues --  -10.27931 -10.27923 -10.20803 -10.20802 -10.20798
 Alpha  occ. eigenvalues --  -10.20703 -10.20702 -10.20696 -10.20479 -10.20478
 Alpha  occ. eigenvalues --  -10.20477 -10.20319 -10.20319 -10.20312 -10.20310
 Alpha  occ. eigenvalues --  -10.20309 -10.20306  -6.55986  -4.72247  -4.72247
 Alpha  occ. eigenvalues --   -4.71743  -1.22114  -1.22113  -1.22106  -0.87207
 Alpha  occ. eigenvalues --   -0.86557  -0.86553  -0.77802  -0.76322  -0.76286
 Alpha  occ. eigenvalues --   -0.76284  -0.74869  -0.74865  -0.65458  -0.63139
 Alpha  occ. eigenvalues --   -0.62959  -0.62957  -0.60999  -0.60996  -0.57074
 Alpha  occ. eigenvalues --   -0.54666  -0.54664  -0.54254  -0.49447  -0.49443
 Alpha  occ. eigenvalues --   -0.49382  -0.48019  -0.48018  -0.46312  -0.46308
 Alpha  occ. eigenvalues --   -0.46295  -0.45865  -0.44922  -0.44920  -0.43857
 Alpha  occ. eigenvalues --   -0.43707  -0.43704  -0.42082  -0.40157  -0.40108
 Alpha  occ. eigenvalues --   -0.40107  -0.37163  -0.37157  -0.36438  -0.34998
 Alpha  occ. eigenvalues --   -0.34996  -0.34951  -0.33924  -0.33921  -0.27230
 Alpha  occ. eigenvalues --   -0.26848  -0.26602  -0.26595  -0.25429  -0.25418
 Alpha  occ. eigenvalues --   -0.21919
 Alpha virt. eigenvalues --   -0.02516  -0.02506  -0.02413  -0.01176  -0.01168
 Alpha virt. eigenvalues --   -0.00310   0.05875   0.05895   0.08467   0.10088
 Alpha virt. eigenvalues --    0.10090   0.12846   0.13529   0.13531   0.14052

 Mulliken charges:
               1
     1  C   -0.183192
     2  C   -0.181047
     3  C   -0.125283
     4  C   -0.166384
     5  C   -0.188788
     6  C    0.346671
     7  F   -0.301551
     8  P    0.435602
     9  C   -0.079653
    10  C   -0.150859
    11  C   -0.185293
    12  C    0.390898
    13  C   -0.182972
    14  C   -0.162182
    15  F   -0.281902
    16  C   -0.104169
    17  C   -0.154961
    18  C   -0.199806
    19  C    0.356390
    20  C   -0.178433
    21  C   -0.187167
    22  F   -0.298408
    23  H    0.138565
    24  H    0.127996
    25  H    0.150372
    26  H    0.142315
    27  H    0.180901
    28  H    0.165163
    29  H    0.161802
    30  H    0.158187
    31  H    0.139418
    32  H    0.141262
    33  H    0.143635
    34  H    0.132874
 Sum of Mulliken charges =  -0.00000

 Dipole moment (field-independent basis, Debye):
    X=              1.7090    Y=             -2.9536    Z=              1.4589  Tot=              3.7112
 Quadrupole moment (field-independent basis, Debye-Ang):
   XX=           -144.2509   YY=           -134.7863   ZZ=           -121.8242
   XY=             -4.5999   XZ=              0.4387   YZ=              0.8397

 Summary of Natural Population Analysis:

                                       Natural Population
                Natural  -----------------------------------------------
    Atom  No    Charge         Core      Valence    Rydberg      Total
 -----------------------------------------------------------------------
      C    1   -0.29917      1.99900     4.28504    0.01513     6.29917
      C    2   -0.23171      1.99903     4.21620    0.01648     6.23171
      C    3   -0.48210      1.99888     4.45660    0.02661     6.48210
      C    4   -0.22483      1.99900     4.20855    0.01727     6.22483
      C    5   -0.30304      1.99899     4.28880    0.01525     6.30304
      C    6    0.38213      1.99844     3.59147    0.02797     5.61787
      F    7   -0.33667      1.99994     7.33121    0.00551     9.33667
      P    8    1.21012      9.99756     3.74079    0.05153    13.78988
      C    9   -0.39011      1.99891     4.36587    0.02533     6.39011
      C   10   -0.19291      1.99901     4.17785    0.01605     6.19291
      C   11   -0.29907      1.99898     4.28532    0.01477     6.29907
      C   12    0.45488      1.99844     3.51959    0.02709     5.54512
      C   13   -0.30096      1.99899     4.28708    0.01490     6.30096
      C   14   -0.19550      1.99903     4.18115    0.01533     6.19550
      F   15   -0.31922      1.99994     7.31369    0.00560     9.31922
      C   16   -0.44517      1.99887     4.42185    0.02445     6.44517
      C   17   -0.18570      1.99902     4.17132    0.01535     6.18570
      C   18   -0.33134      1.99899     4.31609    0.01626     6.33134
      C   19    0.40000      1.99844     3.57379    0.02777     5.60000
      C   20   -0.28468      1.99899     4.27090    0.01479     6.28468
      C   21   -0.27276      1.99900     4.25513    0.01863     6.27276
      F   22   -0.33371      1.99994     7.32826    0.00551     9.33371
      H   23    0.24715      0.00000     0.75161    0.00124     0.75285
      H   24    0.23132      0.00000     0.76779    0.00089     0.76868
      H   25    0.24685      0.00000     0.75145    0.00170     0.75315
      H   26    0.24973      0.00000     0.74907    0.00120     0.75027
      H   27    0.26436      0.00000     0.73444    0.00120     0.73564
      H   28    0.26052      0.00000     0.73831    0.00117     0.73948
      H   29    0.25842      0.00000     0.74040    0.00118     0.74158
      H   30    0.24755      0.00000     0.75126    0.00118     0.75245
      H   31    0.23839      0.00000     0.76048    0.00113     0.76161
      H   32    0.24933      0.00000     0.74949    0.00117     0.75067
      H   33    0.24998      0.00000     0.74882    0.00121     0.75002
      H   34    0.23792      0.00000     0.76074    0.00134     0.76208
 =======================================================================
   * Total *   -0.00000     51.97740   109.59044    0.43217   162.00000

 Normal termination of Gaussian 16 at Sun Aug 23 14:15:54 2020.
