 Gaussian 16, Revision A.03,

 ---------------------------------
 # opt=CalcAll B3LYP/6-31G* scf=qc
 ---------------------------------

 -------------------
 Title Card Required
 -------------------
 Symbolic Z-matrix:
 Charge =  0 Multiplicity = 1

 SCF Done:  E(RB3LYP) =  -2415.07319543     a.u. after    8 cycles
 SCF Done:  E(RB3LYP) =  -2415.08052191     a.u. after   17 cycles
 SCF Done:  E(RB3LYP) =  -2415.08448428     a.u. after   19 cycles
 SCF Done:  E(RB3LYP) =  -2415.08481484     a.u. after   17 cycles
 SCF Done:  E(RB3LYP) =  -2415.08609400     a.u. after   13 cycles
 SCF Done:  E(RB3LYP) =  -2415.08622264     a.u. after   15 cycles
 SCF Done:  E(RB3LYP) =  -2415.08624323     a.u. after    9 cycles
 SCF Done:  E(RB3LYP) =  -2415.08624709     a.u. after    3 cycles
 Optimization completed.
    -- Stationary point found.
 Normal termination of Gaussian 16 at Sun Aug 23 02:02:55 2020.

 ----------------------------------------------------------------------
 # freq B3LYP/6-31G* scf=qc volume NMR pop=NPA density=current Geom=All
 Check Guess=Read
 ----------------------------------------------------------------------

 Structure from the checkpoint file:  "phosphine_11_conf72.chk"
 -------------------
 Title Card Required
 -------------------
 Charge =  0 Multiplicity = 1

 SCF Done:  E(RB3LYP) =  -2415.08624709     a.u. after    1 cycles

      1  C    Isotropic =    67.5461   Anisotropy =   140.5812

      2  C    Isotropic =    60.2023   Anisotropy =   160.2428

      3  C    Isotropic =    58.7222   Anisotropy =   177.4491

      4  C    Isotropic =    61.8622   Anisotropy =   168.5969

      5  C    Isotropic =    67.5385   Anisotropy =   140.1101

      6  C    Isotropic =    51.5933   Anisotropy =   109.1601

      7  Cl   Isotropic =   720.9739   Anisotropy =   452.8498

      8  P    Isotropic =   364.8694   Anisotropy =    37.4425

      9  C    Isotropic =    58.6967   Anisotropy =   177.4040

     10  C    Isotropic =    60.2532   Anisotropy =   160.3109

     11  C    Isotropic =    67.5669   Anisotropy =   140.6145

     12  C    Isotropic =    51.6190   Anisotropy =   109.1071

     13  C    Isotropic =    67.5389   Anisotropy =   140.0902

     14  C    Isotropic =    61.9262   Anisotropy =   168.5268

     15  Cl   Isotropic =   721.0650   Anisotropy =   452.9005

     16  C    Isotropic =    58.7906   Anisotropy =   177.4135

     17  C    Isotropic =    61.8745   Anisotropy =   168.6730

     18  C    Isotropic =    67.5381   Anisotropy =   140.1226

     19  C    Isotropic =    51.5911   Anisotropy =   109.1680

     20  C    Isotropic =    67.5578   Anisotropy =   140.5741

     21  C    Isotropic =    60.2106   Anisotropy =   160.2645

     22  Cl   Isotropic =   720.9170   Anisotropy =   452.9664

     23  H    Isotropic =    25.0925   Anisotropy =     6.6334

     24  H    Isotropic =    24.7771   Anisotropy =     8.9638

     25  H    Isotropic =    25.5808   Anisotropy =    12.1014

     26  H    Isotropic =    25.2078   Anisotropy =     8.1399

     27  H    Isotropic =    24.7835   Anisotropy =     8.9801

     28  H    Isotropic =    25.0909   Anisotropy =     6.6386

     29  H    Isotropic =    25.2115   Anisotropy =     8.1422

     30  H    Isotropic =    25.5914   Anisotropy =    12.1270

     31  H    Isotropic =    25.5787   Anisotropy =    12.1112

     32  H    Isotropic =    25.2071   Anisotropy =     8.1441

     33  H    Isotropic =    25.0933   Anisotropy =     6.6294

     34  H    Isotropic =    24.7779   Anisotropy =     8.9598

  Exact polarizability: 280.695  -0.135 280.463   0.013  -0.143 185.147
 Approx polarizability: 393.599  -0.313 393.177   0.026  -0.330 343.233

                      1                      2                      3
                      A                      A                      A
 Frequencies --     22.4923                23.9997                29.6523
 Red. masses --      4.8146                 5.4731                 8.4189
 Frc consts  --      0.0014                 0.0019                 0.0044
 IR Inten    --      0.2792                 0.2290                 0.1872

                      4                      5                      6
                      A                      A                      A
 Frequencies --     30.2989                38.5022                40.6131
 Red. masses --      6.9760                 8.5105                 4.4480
 Frc consts  --      0.0038                 0.0074                 0.0043
 IR Inten    --      0.2355                 0.1995                 0.0278

                      7                      8                      9
                      A                      A                      A
 Frequencies --    109.4419               117.6442               117.9111
 Red. masses --      8.8648                 8.8384                 8.8290
 Frc consts  --      0.0626                 0.0721                 0.0723
 IR Inten    --      0.0249                 0.3508                 0.3480

                     10                     11                     12
                      A                      A                      A
 Frequencies --    181.0693               187.3943               187.7257
 Red. masses --     10.0369                 8.7910                 8.7958
 Frc consts  --      0.1939                 0.1819                 0.1826
 IR Inten    --      0.3333                 0.5738                 0.5668

                     13                     14                     15
                      A                      A                      A
 Frequencies --    264.0507               293.6724               293.8567
 Red. masses --      8.9790                 8.4109                 8.4195
 Frc consts  --      0.3689                 0.4274                 0.4284
 IR Inten    --      0.2162                 0.9078                 0.9144

                     16                     17                     18
                      A                      A                      A
 Frequencies --    310.9489               328.7092               328.9241
 Red. masses --      6.0405                 5.9857                 5.9766
 Frc consts  --      0.3441                 0.3811                 0.3810
 IR Inten    --      0.0033                 1.8816                 1.8807

                     19                     20                     21
                      A                      A                      A
 Frequencies --    384.0366               384.1337               414.7304
 Red. masses --      8.0332                 8.0188                 3.0453
 Frc consts  --      0.6980                 0.6971                 0.3086
 IR Inten    --     20.9682                21.0139                 0.0469

                     22                     23                     24
                      A                      A                      A
 Frequencies --    414.8830               416.8176               427.0159
 Red. masses --      3.0476                 3.2155                 6.6021
 Frc consts  --      0.3091                 0.3291                 0.7093
 IR Inten    --      0.0531                 0.1657                 2.9396

                     25                     26                     27
                      A                      A                      A
 Frequencies --    499.5735               509.4410               509.5762
 Red. masses --      5.5234                 3.6472                 3.6532
 Frc consts  --      0.8122                 0.5577                 0.5589
 IR Inten    --      6.8233                19.8064                19.9093

                     28                     29                     30
                      A                      A                      A
 Frequencies --    531.7402               548.8665               548.8806
 Red. masses --      4.5720                 7.4126                 7.4374
 Frc consts  --      0.7616                 1.3157                 1.3202
 IR Inten    --      9.8678                 5.4901                 5.4537

                     31                     32                     33
                      A                      A                      A
 Frequencies --    644.3537               644.3782               645.3101
 Red. masses --      7.1600                 7.1600                 7.1685
 Frc consts  --      1.7515                 1.7517                 1.7588
 IR Inten    --      0.0372                 0.0367                 0.0958

                     34                     35                     36
                      A                      A                      A
 Frequencies --    718.2752               718.3741               718.7670
 Red. masses --      4.5898                 4.5941                 4.6098
 Frc consts  --      1.3952                 1.3969                 1.4032
 IR Inten    --      1.6700                 1.6739                 0.2910

                     37                     38                     39
                      A                      A                      A
 Frequencies --    746.1276               751.6257               751.6753
 Red. masses --      7.2608                 7.2735                 7.2741
 Frc consts  --      2.3815                 2.4210                 2.4215
 IR Inten    --     14.6383                54.3673                54.3691

                     40                     41                     42
                      A                      A                      A
 Frequencies --    833.8309               834.2444               834.3610
 Red. masses --      1.4158                 1.4320                 1.4312
 Frc consts  --      0.5800                 0.5872                 0.5870
 IR Inten    --     23.3230                32.7837                32.9849

                     43                     44                     45
                      A                      A                      A
 Frequencies --    845.9563               846.1052               849.1415
 Red. masses --      1.2466                 1.2464                 1.2502
 Frc consts  --      0.5256                 0.5257                 0.5311
 IR Inten    --      0.6579                 0.6160                 0.3300

                     46                     47                     48
                      A                      A                      A
 Frequencies --    969.6175               969.7771               970.1186
 Red. masses --      1.2763                 1.2770                 1.2882
 Frc consts  --      0.7070                 0.7076                 0.7143
 IR Inten    --      0.1514                 0.1427                 0.2064

                     49                     50                     51
                      A                      A                      A
 Frequencies --    973.4388               973.6982               976.9615
 Red. masses --      1.3455                 1.3435                 1.3206
 Frc consts  --      0.7512                 0.7505                 0.7426
 IR Inten    --      0.0108                 0.0132                 0.4165

                     52                     53                     54
                      A                      A                      A
 Frequencies --   1027.9761              1028.0060              1029.6309
 Red. masses --      4.7610                 4.7632                 4.7000
 Frc consts  --      2.9642                 2.9658                 2.9357
 IR Inten    --     62.7320                62.6669                 5.1244

                     55                     56                     57
                      A                      A                      A
 Frequencies --   1097.7339              1097.8019              1101.5117
 Red. masses --      7.9026                 7.9204                 8.0766
 Frc consts  --      5.6107                 5.6240                 5.7738
 IR Inten    --     80.7973                81.5832                13.6821

                     58                     59                     60
                      A                      A                      A
 Frequencies --   1118.2688              1118.3390              1121.2010
 Red. masses --      2.1235                 2.1214                 2.1021
 Frc consts  --      1.5645                 1.5632                 1.5569
 IR Inten    --     33.2555                32.7399                 6.3850

                     61                     62                     63
                      A                      A                      A
 Frequencies --   1139.4079              1139.4839              1139.5386
 Red. masses --      1.4014                 1.4019                 1.4023
 Frc consts  --      1.0719                 1.0725                 1.0729
 IR Inten    --      0.1428                 0.1820                 3.8104

                     64                     65                     66
                      A                      A                      A
 Frequencies --   1219.3333              1219.3603              1220.8512
 Red. masses --      1.1572                 1.1573                 1.1517
 Frc consts  --      1.0137                 1.0138                 1.0114
 IR Inten    --      4.8162                 4.8179                 0.8858

                     67                     68                     69
                      A                      A                      A
 Frequencies --   1318.3225              1322.2377              1322.3461
 Red. masses --      6.9225                 7.6320                 7.6735
 Frc consts  --      7.0886                 7.8615                 7.9056
 IR Inten    --      1.3167                 2.6716                 2.6632

                     70                     71                     72
                      A                      A                      A
 Frequencies --   1337.4385              1337.5101              1337.7182
 Red. masses --      1.3321                 1.3322                 1.3528
 Frc consts  --      1.4039                 1.4041                 1.4264
 IR Inten    --      0.3702                 0.3225                 1.5905

                     73                     74                     75
                      A                      A                      A
 Frequencies --   1429.5648              1430.0134              1430.0476
 Red. masses --      2.6344                 2.6412                 2.6416
 Frc consts  --      3.1721                 3.1823                 3.1828
 IR Inten    --     19.4565                 6.2559                 6.2294

                     76                     77                     78
                      A                      A                      A
 Frequencies --   1527.1428              1527.1615              1527.2184
 Red. masses --      2.0940                 2.0767                 2.0769
 Frc consts  --      2.8773                 2.8537                 2.8541
 IR Inten    --     16.5885                63.8133                61.6474

                     79                     80                     81
                      A                      A                      A
 Frequencies --   1611.0385              1611.2788              1611.3151
 Red. masses --      6.6424                 6.6609                 6.6600
 Frc consts  --     10.1576                10.1888                10.1879
 IR Inten    --      3.8625                 3.7811                 3.8530

                     82                     83                     84
                      A                      A                      A
 Frequencies --   1633.4370              1633.4696              1634.4980
 Red. masses --      5.4276                 5.4253                 5.4921
 Frc consts  --      8.5323                 8.5289                 8.6449
 IR Inten    --     29.8495                29.5789                13.1236

                     85                     86                     87
                      A                      A                      A
 Frequencies --   3188.0665              3188.1176              3188.1493
 Red. masses --      1.0893                 1.0892                 1.0892
 Frc consts  --      6.5229                 6.5227                 6.5227
 IR Inten    --      6.7024                 3.5655                 2.4242

                     88                     89                     90
                      A                      A                      A
 Frequencies --   3205.7263              3205.8481              3206.4111
 Red. masses --      1.0878                 1.0878                 1.0879
 Frc consts  --      6.5867                 6.5871                 6.5898
 IR Inten    --      0.8574                 0.8707                 0.6491

                     91                     92                     93
                      A                      A                      A
 Frequencies --   3222.6080              3222.6399              3222.7684
 Red. masses --      1.0938                 1.0938                 1.0937
 Frc consts  --      6.6925                 6.6926                 6.6927
 IR Inten    --      2.2970                 2.4475                 9.8513

                     94                     95                     96
                      A                      A                      A
 Frequencies --   3223.6882              3223.7115              3223.9491
 Red. masses --      1.0939                 1.0939                 1.0941
 Frc consts  --      6.6978                 6.6980                 6.7002
 IR Inten    --      5.6843                 5.6737                 0.0284

 - Thermochemistry -
 -------------------
 Temperature   298.150 Kelvin.  Pressure   1.00000 Atm.
 Atom     1 has atomic number  6 and mass  12.00000

 Molecular mass:   363.97422 amu.
 Principal axes and moments of inertia in atomic units:
                           1         2         3
     Eigenvalues --  ******************************
           X            0.99945  -0.03317   0.00001
           Y            0.03317   0.99945  -0.00003
           Z           -0.00000   0.00003   1.00000
 This molecule is an asymmetric top.
 Rotational symmetry number  1.
 Warning -- assumption of classical behavior for rotation
           may cause significant error
 Rotational temperatures (Kelvin)      0.00723     0.00723     0.00405
 Rotational constants (GHZ):           0.15067     0.15057     0.08440
 Zero-point vibrational energy     643798.0 (Joules/Mol)
                                  153.87142 (Kcal/Mol)
 Warning -- explicit consideration of  30 degrees of freedom as
           vibrations may cause significant error
 Vibrational temperatures:     32.36    34.53    42.66    43.59    55.40
          (Kelvin)             58.43   157.46   169.26   169.65   260.52
                              269.62   270.10   379.91   422.53   422.79
                              447.39   472.94   473.25   552.54   552.68
                              596.70   596.92   599.71   614.38   718.77
                              732.97   733.17   765.06   789.70   789.72
                              927.08   927.12   928.46  1033.44  1033.58
                             1034.15  1073.51  1081.42  1081.49  1199.70
                             1200.29  1200.46  1217.14  1217.36  1221.73
                             1395.06  1395.29  1395.78  1400.56  1400.93
                             1405.63  1479.03  1479.07  1481.41  1579.39
                             1579.49  1584.83  1608.94  1609.04  1613.16
                             1639.35  1639.46  1639.54  1754.35  1754.39
                             1756.53  1896.77  1902.41  1902.56  1924.28
                             1924.38  1924.68  2056.82  2057.47  2057.52
                             2197.22  2197.24  2197.33  2317.93  2318.27
                             2318.32  2350.15  2350.20  2351.68  4586.92
                             4586.99  4587.04  4612.33  4612.50  4613.31
                             4636.61  4636.66  4636.84  4638.17  4638.20
                             4638.54

 Zero-point correction=                           0.245210 (Hartree/Particle)
 Thermal correction to Energy=                    0.264851
 Thermal correction to Enthalpy=                  0.265795
 Thermal correction to Gibbs Free Energy=         0.192402
 Sum of electronic and zero-point Energies=          -2414.841037
 Sum of electronic and thermal Energies=             -2414.821396
 Sum of electronic and thermal Enthalpies=           -2414.820452
 Sum of electronic and thermal Free Energies=        -2414.893845

                     E (Thermal)             CV                S
                      KCal/Mol        Cal/Mol-Kelvin    Cal/Mol-Kelvin
 Total                  166.197             74.116            154.469
 Electronic               0.000              0.000              0.000
 Translational            0.889              2.981             43.569
 Rotational               0.889              2.981             36.372
 Vibrational            164.419             68.155             74.529
 Vibration     1          0.593              1.985              6.401
 Vibration     2          0.593              1.985              6.272
 Vibration     3          0.593              1.984              5.853
 Vibration     4          0.594              1.984              5.810
 Vibration     5          0.594              1.981              5.335
 Vibration     6          0.594              1.981              5.229
 Vibration     7          0.606              1.942              3.279
 Vibration     8          0.608              1.935              3.139
 Vibration     9          0.608              1.934              3.134
 Vibration    10          0.630              1.865              2.317
 Vibration    11          0.632              1.857              2.253
 Vibration    12          0.632              1.857              2.250
 Vibration    13          0.671              1.739              1.635
 Vibration    14          0.688              1.686              1.453
 Vibration    15          0.689              1.685              1.452
 Vibration    16          0.700              1.653              1.357
 Vibration    17          0.712              1.618              1.266
 Vibration    18          0.712              1.618              1.265
 Vibration    19          0.753              1.504              1.023
 Vibration    20          0.753              1.504              1.023
 Vibration    21          0.778              1.438              0.910
 Vibration    22          0.778              1.438              0.910
 Vibration    23          0.780              1.434              0.903
 Vibration    24          0.789              1.411              0.868
 Vibration    25          0.855              1.251              0.659
 Vibration    26          0.865              1.229              0.635
 Vibration    27          0.865              1.229              0.635
 Vibration    28          0.887              1.180              0.583
 Vibration    29          0.904              1.142              0.547
 Vibration    30          0.904              1.142              0.546

                           ! Non-Optimized Parameters !
 Normal termination of Gaussian 16 at Sun Aug 23 02:18:49 2020.
 Gaussian 16:  ES64L-G16RevA.03 25-Dec-2016

 ----------------------------------------------------------------------
 # TD(NStates=10, Root=1) B3LYP/6-31G* scf=qc volume pop=NPA density=cu
 rrent Geom=AllCheck Guess=Read
 ----------------------------------------------------------------------

 Structure from the checkpoint file:  "phosphine_11_conf73.chk"
 -------------------
 Title Card Required
 -------------------
 Charge =  0 Multiplicity = 1

                         Standard orientation:
 ---------------------------------------------------------------------
 Center     Atomic      Atomic             Coordinates (Angstroms)
 Number     Number       Type             X           Y           Z
 ---------------------------------------------------------------------
      1          6           0        1.240803   -3.856598    0.854682
      2          6           0        0.657799   -2.702312    1.374400
      3          6           0        0.812932   -1.457084    0.742680
      4          6           0        1.593496   -1.395201   -0.421366
      5          6           0        2.193845   -2.539626   -0.948330
      6          6           0        2.007883   -3.762779   -0.306313
      7         17           0        2.759670   -5.208442   -0.964765
      8         15           0       -0.000582    0.000078    1.547754
      9          6           0        0.855233    1.432907    0.742787
     10          6           0        2.017077    1.914072    1.369275
     11          6           0        2.726024    2.995641    0.849815
     12          6           0        2.256145    3.620061   -0.305402
     13          6           0        1.098053    3.176836   -0.941880
     14          6           0        0.406367    2.084889   -0.415419
     15         17           0        3.133367    4.993512   -0.963355
     16          6           0       -1.669267    0.024416    0.742682
     17          6           0       -2.006483   -0.683301   -0.420714
     18          6           0       -3.297859   -0.630918   -0.947430
     19          6           0       -4.263702    0.142647   -0.305864
     20          6           0       -3.960876    0.854710    0.854482
     21          6           0       -2.669672    0.782300    1.374010
     22         17           0       -5.891681    0.214587   -0.964034
     23          1           0        1.112592   -4.814474    1.347601
     24          1           0        0.076322   -2.773286    2.290474
     25          1           0        1.743062   -0.445469   -0.925679
     26          1           0        2.798337   -2.483489   -1.847638
     27          1           0        2.373479    1.440624    2.280970
     28          1           0        3.624259    3.357883    1.338570
     29          1           0        0.743250    3.677628   -1.836664
     30          1           0       -0.495405    1.745333   -0.915591
     31          1           0       -1.259133   -1.288400   -0.924706
     32          1           0       -3.551910   -1.183159   -1.846209
     33          1           0       -4.725955    1.445434    1.347060
     34          1           0       -2.439997    1.322065    2.289569
 ---------------------------------------------------------------------

 SCF Done:  E(RB3LYP) =  -2415.08624709     a.u. after    1 cycles

 Excitation energies and oscillator strengths:

 Excited State   1:      Singlet-A      4.4044 eV  281.50 nm  f=0.1823  <S**2>=0.000
      93 -> 94         0.69580
 This state for optimization and/or second-order correction.
 Total Energy, E(TD-HF/TD-DFT) =  -2414.92438935
 Copying the excited state density for this state as the 1-particle RhoCI density.

 Excited State   2:      Singlet-A      4.4081 eV  281.27 nm  f=0.1846  <S**2>=0.000
      93 -> 95         0.69575

 Excited State   3:      Singlet-A      4.6118 eV  268.84 nm  f=0.0036  <S**2>=0.000
      89 -> 94        -0.10961
      90 -> 95         0.11036
      93 -> 96         0.67972

 Excited State   4:      Singlet-A      4.9169 eV  252.16 nm  f=0.0001  <S**2>=0.000
      88 -> 94         0.11664
      89 -> 95        -0.11824
      89 -> 97         0.10024
      90 -> 94         0.11771
      93 -> 98         0.64567

 Excited State   5:      Singlet-A      4.9186 eV  252.07 nm  f=0.0001  <S**2>=0.000
      88 -> 95         0.11631
      89 -> 94        -0.11883
      90 -> 95        -0.11958
      90 -> 97        -0.10161
      93 -> 99         0.64476

 Excited State   6:      Singlet-A      5.0221 eV  246.88 nm  f=0.0090  <S**2>=0.000
      91 -> 94         0.11696
      92 -> 95         0.11770
      93 -> 97         0.66863

 Excited State   7:      Singlet-A      5.2596 eV  235.73 nm  f=0.0018  <S**2>=0.000
      89 -> 94         0.13386
      90 -> 95        -0.12870
      91 -> 94        -0.24112
      91 -> 95        -0.36972
      91 -> 98        -0.12710
      92 -> 94         0.37786
      92 -> 95        -0.23959
      92 -> 99        -0.12332
      93 -> 96         0.10390

 Excited State   8:      Singlet-A      5.3608 eV  231.28 nm  f=0.0051  <S**2>=0.000
      88 -> 94         0.19248
      89 -> 95        -0.18417
      89 -> 97         0.11197
      90 -> 94         0.18494
      91 -> 95         0.13391
      91 -> 96         0.38247
      91 -> 99         0.13944
      92 -> 94         0.13378
      92 -> 96         0.22049
      92 -> 98         0.14311
      93 -> 98        -0.22676

 Excited State   9:      Singlet-A      5.3624 eV  231.21 nm  f=0.0048  <S**2>=0.000
      88 -> 95         0.18902
      89 -> 94        -0.18483
      90 -> 95        -0.18340
      90 -> 97        -0.11199
      91 -> 94         0.13462
      91 -> 96        -0.21770
      91 -> 98         0.14103
      92 -> 95        -0.13890
      92 -> 96         0.38675
      92 -> 99        -0.14049
      93 -> 99        -0.22834

 Excited State  10:      Singlet-A      5.4208 eV  228.72 nm  f=0.1606  <S**2>=0.000
      91 -> 94         0.37697
      91 -> 95         0.27507
      92 -> 94         0.27432
      92 -> 95        -0.37221
      92 -> 96        -0.13452

 The electronic state is 1-A.
 Alpha  occ. eigenvalues -- -101.55494-101.55494-101.55489 -77.10094 -10.26331
 Alpha  occ. eigenvalues --  -10.26330 -10.26323 -10.21419 -10.21418 -10.21416
 Alpha  occ. eigenvalues --  -10.21369 -10.21368 -10.21364 -10.21348 -10.21347
 Alpha  occ. eigenvalues --  -10.21342 -10.21314 -10.21313 -10.21309 -10.21250
 Alpha  occ. eigenvalues --  -10.21250 -10.21243  -9.47126  -9.47126  -9.47121
 Alpha  occ. eigenvalues --   -7.23521  -7.23520  -7.23515  -7.22556  -7.22556
 Alpha  occ. eigenvalues --   -7.22551  -7.22519  -7.22518  -7.22514  -6.56809
 Alpha  occ. eigenvalues --   -4.73070  -4.73069  -4.72564  -0.89964  -0.89793
 Alpha  occ. eigenvalues --   -0.89788  -0.85153  -0.84238  -0.84234  -0.76898
 Alpha  occ. eigenvalues --   -0.76781  -0.76779  -0.76742  -0.73908  -0.73904
 Alpha  occ. eigenvalues --   -0.65058  -0.63150  -0.62987  -0.62985  -0.60497
 Alpha  occ. eigenvalues --   -0.60495  -0.57615  -0.52432  -0.52429  -0.49746
 Alpha  occ. eigenvalues --   -0.48088  -0.47999  -0.47998  -0.47167  -0.47166
 Alpha  occ. eigenvalues --   -0.46321  -0.44340  -0.44247  -0.44244  -0.42726
 Alpha  occ. eigenvalues --   -0.42723  -0.40319  -0.40239  -0.40235  -0.39581
 Alpha  occ. eigenvalues --   -0.37220  -0.37218  -0.37129  -0.35191  -0.35185
 Alpha  occ. eigenvalues --   -0.34135  -0.33463  -0.33457  -0.31868  -0.31863
 Alpha  occ. eigenvalues --   -0.31860  -0.27684  -0.27414  -0.27145  -0.27139
 Alpha  occ. eigenvalues --   -0.25833  -0.25824  -0.22677
 Alpha virt. eigenvalues --   -0.03961  -0.03952  -0.03033  -0.01964  -0.01790
 Alpha virt. eigenvalues --   -0.01781   0.02241   0.02245   0.02402   0.05585
 Alpha virt. eigenvalues --    0.05600   0.10344   0.12155   0.12344   0.12347

 Mulliken charges:
               1
     1  C   -0.125741
     2  C   -0.157048
     3  C   -0.107601
     4  C   -0.171794
     5  C   -0.113550
     6  C   -0.090640
     7  Cl  -0.028608
     8  P    0.446444
     9  C   -0.080465
    10  C   -0.157503
    11  C   -0.115095
    12  C   -0.063536
    13  C   -0.117029
    14  C   -0.147788
    15  Cl   0.016642
    16  C   -0.127636
    17  C   -0.164669
    18  C   -0.121705
    19  C   -0.096787
    20  C   -0.118855
    21  C   -0.174612
    22  Cl  -0.037292
    23  H    0.151944
    24  H    0.141202
    25  H    0.138005
    26  H    0.153789
    27  H    0.161711
    28  H    0.170602
    29  H    0.174475
    30  H    0.185193
    31  H    0.150685
    32  H    0.150793
    33  H    0.146595
    34  H    0.129877
 Sum of Mulliken charges =   0.00000

 Dipole moment (field-independent basis, Debye):
    X=              2.7209    Y=              3.2195    Z=              1.9747  Tot=              4.6549
 Quadrupole moment (field-independent basis, Debye-Ang):
   XX=           -172.7089   YY=           -162.3943   ZZ=           -145.0411
   XY=              7.3483   XZ=              0.0723   YZ=             -1.0616

 Summary of Natural Population Analysis:

                                       Natural Population
                Natural  -----------------------------------------------
    Atom  No    Charge         Core      Valence    Rydberg      Total
 -----------------------------------------------------------------------
      C    1   -0.26423      1.99894     4.24875    0.01654     6.26423
      C    2   -0.19755      1.99901     4.18293    0.01561     6.19755
      C    3   -0.44136      1.99887     4.41832    0.02417     6.44136
      C    4   -0.24765      1.99899     4.23124    0.01742     6.24765
      C    5   -0.23545      1.99893     4.22108    0.01544     6.23545
      C    6   -0.07108      1.99854     4.05032    0.02222     6.07108
     Cl    7   -0.00536      9.99967     6.98550    0.02019    17.00536
      P    8    1.21202      9.99758     3.74055    0.04984    13.78798
      C    9   -0.37808      1.99891     4.35419    0.02498     6.37808
      C   10   -0.19318      1.99902     4.17902    0.01515     6.19318
      C   11   -0.24452      1.99893     4.23026    0.01532     6.24452
      C   12   -0.01517      1.99855     3.99435    0.02228     6.01517
      C   13   -0.24159      1.99892     4.22738    0.01529     6.24159
      C   14   -0.19300      1.99900     4.17804    0.01596     6.19300
     Cl   15    0.02886      9.99967     6.95220    0.01928    16.97114
      C   16   -0.47556      1.99887     4.45063    0.02606     6.47556
      C   17   -0.22858      1.99899     4.21224    0.01735     6.22858
      C   18   -0.24996      1.99893     4.23500    0.01603     6.24996
      C   19   -0.08339      1.99854     4.06260    0.02225     6.08339
      C   20   -0.25167      1.99894     4.23671    0.01602     6.25167
      C   21   -0.22578      1.99901     4.21061    0.01615     6.22578
     Cl   22   -0.01161      9.99967     6.99154    0.02039    17.01161
      H   23    0.25319      0.00000     0.74578    0.00103     0.74681
      H   24    0.24019      0.00000     0.75869    0.00111     0.75981
      H   25    0.24095      0.00000     0.75772    0.00133     0.75905
      H   26    0.25388      0.00000     0.74506    0.00106     0.74612
      H   27    0.25009      0.00000     0.74874    0.00117     0.74991
      H   28    0.26134      0.00000     0.73760    0.00106     0.73866
      H   29    0.26373      0.00000     0.73523    0.00105     0.73627
      H   30    0.26725      0.00000     0.73157    0.00118     0.73275
      H   31    0.24759      0.00000     0.75088    0.00152     0.75241
      H   32    0.25275      0.00000     0.74620    0.00105     0.74725
      H   33    0.24996      0.00000     0.74895    0.00108     0.75004
      H   34    0.23294      0.00000     0.76614    0.00091     0.76706
 =======================================================================
   * Total *   -0.00000     75.97648   109.56604    0.45748   186.00000

 Normal termination of Gaussian 16 at Sun Aug 23 02:36:32 2020.
