 Gaussian 16, Revision A.03,

 ---------------------------------
 # opt=CalcAll B3LYP/6-31G* scf=qc
 ---------------------------------

 -------------------
 Title Card Required
 -------------------
 Symbolic Z-matrix:
 Charge =  0 Multiplicity = 1

 SCF Done:  E(RB3LYP) =  -814.779186404     a.u. after    7 cycles
 SCF Done:  E(RB3LYP) =  -814.805852030     a.u. after   15 cycles
 SCF Done:  E(RB3LYP) =  -814.862388876     a.u. after   13 cycles
 SCF Done:  E(RB3LYP) =  -814.893009460     a.u. after   15 cycles
 SCF Done:  E(RB3LYP) =  -814.903441180     a.u. after   15 cycles
 SCF Done:  E(RB3LYP) =  -814.905655337     a.u. after   13 cycles
 SCF Done:  E(RB3LYP) =  -814.906354098     a.u. after   11 cycles
 SCF Done:  E(RB3LYP) =  -814.906669983     a.u. after   11 cycles
 SCF Done:  E(RB3LYP) =  -814.906880985     a.u. after   13 cycles
 SCF Done:  E(RB3LYP) =  -814.907008250     a.u. after    9 cycles
 SCF Done:  E(RB3LYP) =  -814.907013328     a.u. after    6 cycles
 SCF Done:  E(RB3LYP) =  -814.907013374     a.u. after    3 cycles
 SCF Done:  E(RB3LYP) =  -814.907013512     a.u. after    2 cycles
 SCF Done:  E(RB3LYP) =  -814.907013460     a.u. after    2 cycles
 Optimization completed.
    -- Stationary point found.
 Normal termination of Gaussian 16 at Sun Aug 23 09:48:31 2020.

 ----------------------------------------------------------------------
 # freq B3LYP/6-31G* scf=qc volume NMR pop=NPA density=current Geom=All
 Check Guess=Read
 ----------------------------------------------------------------------

 Structure from the checkpoint file:  "phosphine_2_conf232.chk"
 -------------------
 Title Card Required
 -------------------
 Charge =  0 Multiplicity = 1

 SCF Done:  E(RB3LYP) =  -814.907013460     a.u. after    1 cycles

      1  C    Isotropic =   173.7474   Anisotropy =    24.1694

      2  C    Isotropic =   162.3948   Anisotropy =    22.8350

      3  C    Isotropic =   164.0826   Anisotropy =    21.5178

      4  C    Isotropic =   158.4188   Anisotropy =    24.1991

      5  H    Isotropic =    30.7144   Anisotropy =     5.9686

      6  H    Isotropic =    30.7104   Anisotropy =     6.4429

      7  P    Isotropic =   383.0691   Anisotropy =    31.2744

      8  C    Isotropic =   161.3221   Anisotropy =    14.4163

      9  H    Isotropic =    31.2227   Anisotropy =     5.6040

     10  H    Isotropic =    30.3121   Anisotropy =     5.8681

     11  C    Isotropic =   163.2543   Anisotropy =    13.7827

     12  C    Isotropic =   161.9903   Anisotropy =    19.1765

     13  C    Isotropic =   173.9413   Anisotropy =    11.7172

     14  C    Isotropic =   164.4907   Anisotropy =    30.8251

     15  H    Isotropic =    30.9756   Anisotropy =     7.1920

     16  H    Isotropic =    30.4191   Anisotropy =     4.7935

     17  C    Isotropic =   156.6042   Anisotropy =    23.4893

     18  C    Isotropic =   164.0099   Anisotropy =    18.2965

     19  C    Isotropic =   173.2985   Anisotropy =    25.7434

     20  H    Isotropic =    31.0263   Anisotropy =    10.5282

     21  H    Isotropic =    31.2403   Anisotropy =     7.7989

     22  H    Isotropic =    31.2201   Anisotropy =     7.5524

     23  H    Isotropic =    30.7916   Anisotropy =     6.4535

     24  H    Isotropic =    30.7986   Anisotropy =     5.9784

     25  H    Isotropic =    30.6831   Anisotropy =     5.6368

     26  H    Isotropic =    30.8496   Anisotropy =     5.7553

     27  H    Isotropic =    30.9128   Anisotropy =     4.6781

     28  H    Isotropic =    30.4241   Anisotropy =     9.0583

     29  H    Isotropic =    30.5077   Anisotropy =     9.6623

     30  H    Isotropic =    30.7174   Anisotropy =     7.4736

     31  H    Isotropic =    31.3715   Anisotropy =     7.0147

     32  H    Isotropic =    31.2117   Anisotropy =    10.2881

     33  H    Isotropic =    30.6792   Anisotropy =     5.7149

     34  H    Isotropic =    30.4869   Anisotropy =     7.8466

     35  H    Isotropic =    30.4483   Anisotropy =     5.6046

     36  H    Isotropic =    30.5252   Anisotropy =     6.5927

     37  H    Isotropic =    30.9277   Anisotropy =     5.3563

     38  H    Isotropic =    31.2600   Anisotropy =     8.2384

     39  H    Isotropic =    31.0748   Anisotropy =     9.9689

     40  H    Isotropic =    31.3173   Anisotropy =     8.6305

  Exact polarizability: 171.891   1.848 157.796  -2.616   1.863 130.639
 Approx polarizability: 212.996   2.379 209.898  -3.938   7.013 200.805

                      1                      2                      3
                      A                      A                      A
 Frequencies --     18.5427                23.1521                45.2981
 Red. masses --      2.9909                 2.9233                 1.9272
 Frc consts  --      0.0006                 0.0009                 0.0023
 IR Inten    --      0.0065                 0.0102                 0.0192

                      4                      5                      6
                      A                      A                      A
 Frequencies --     57.3123                59.1762                80.6017
 Red. masses --      2.4834                 2.4923                 1.8424
 Frc consts  --      0.0048                 0.0051                 0.0071
 IR Inten    --      0.1308                 0.0369                 0.0158

                      7                      8                      9
                      A                      A                      A
 Frequencies --     96.9989                99.9799               108.8738
 Red. masses --      2.4638                 2.6815                 2.6846
 Frc consts  --      0.0137                 0.0158                 0.0187
 IR Inten    --      0.1426                 0.0251                 0.0735

                     10                     11                     12
                      A                      A                      A
 Frequencies --    140.3731               170.2298               202.4591
 Red. masses --      2.3233                 2.4150                 2.7066
 Frc consts  --      0.0270                 0.0412                 0.0654
 IR Inten    --      0.0244                 0.1012                 0.0248

                     13                     14                     15
                      A                      A                      A
 Frequencies --    215.2952               234.1458               245.9111
 Red. masses --      2.1458                 1.5131                 1.1807
 Frc consts  --      0.0586                 0.0489                 0.0421
 IR Inten    --      0.0805                 0.1548                 0.0558

                     16                     17                     18
                      A                      A                      A
 Frequencies --    249.7853               256.2329               288.6370
 Red. masses --      1.2436                 1.8087                 2.3333
 Frc consts  --      0.0457                 0.0700                 0.1145
 IR Inten    --      0.0263                 0.1386                 0.2195

                     19                     20                     21
                      A                      A                      A
 Frequencies --    292.5936               314.7439               367.5522
 Red. masses --      2.4855                 1.8150                 4.0783
 Frc consts  --      0.1254                 0.1059                 0.3246
 IR Inten    --      0.4066                 0.0237                 1.1454

                     22                     23                     24
                      A                      A                      A
 Frequencies --    407.4483               457.8548               480.1224
 Red. masses --      2.6860                 1.9404                 2.6104
 Frc consts  --      0.2627                 0.2397                 0.3545
 IR Inten    --      0.3153                 0.9944                 0.2845

                     25                     26                     27
                      A                      A                      A
 Frequencies --    622.5881               645.0133               705.8483
 Red. masses --      3.5001                 3.0900                 3.9237
 Frc consts  --      0.7993                 0.7574                 1.1518
 IR Inten    --      2.3087                 5.3241                 3.6599

                     28                     29                     30
                      A                      A                      A
 Frequencies --    716.6855               745.8092               767.7616
 Red. masses --      1.2578                 1.2046                 1.1655
 Frc consts  --      0.3806                 0.3948                 0.4048
 IR Inten    --      9.5208                10.4206                 0.1592

                     31                     32                     33
                      A                      A                      A
 Frequencies --    778.8688               794.6586               798.5797
 Red. masses --      1.2281                 2.0942                 1.5550
 Frc consts  --      0.4390                 0.7791                 0.5843
 IR Inten    --      1.0102                 3.3603                 6.7235

                     34                     35                     36
                      A                      A                      A
 Frequencies --    875.5158               890.5783               900.0051
 Red. masses --      1.7700                 1.5598                 1.4249
 Frc consts  --      0.7994                 0.7289                 0.6800
 IR Inten    --      1.1767                 1.8490                 2.3029

                     37                     38                     39
                      A                      A                      A
 Frequencies --    904.5079               913.2088               927.7879
 Red. masses --      1.5137                 1.5449                 1.3513
 Frc consts  --      0.7297                 0.7591                 0.6853
 IR Inten    --      5.0457                 0.8821                15.2768

                     40                     41                     42
                      A                      A                      A
 Frequencies --    984.8506              1012.1953              1021.9585
 Red. masses --      2.2274                 2.7204                 3.6880
 Frc consts  --      1.2729                 1.6421                 2.2694
 IR Inten    --      2.0665                 1.8527                 2.8844

                     43                     44                     45
                      A                      A                      A
 Frequencies --   1062.3589              1065.9992              1071.2538
 Red. masses --      2.4060                 1.3122                 1.5834
 Frc consts  --      1.5999                 0.8785                 1.0706
 IR Inten    --      0.8565                 0.6999                 2.3158

                     46                     47                     48
                      A                      A                      A
 Frequencies --   1078.1034              1085.7357              1105.8804
 Red. masses --      1.5289                 1.7460                 1.4405
 Frc consts  --      1.0470                 1.2127                 1.0380
 IR Inten    --      1.8825                 4.4410                 0.6826

                     49                     50                     51
                      A                      A                      A
 Frequencies --   1109.9886              1119.9063              1121.2819
 Red. masses --      1.6947                 1.7173                 1.9859
 Frc consts  --      1.2302                 1.2690                 1.4711
 IR Inten    --      1.7366                 1.8497                13.2860

                     52                     53                     54
                      A                      A                      A
 Frequencies --   1228.5821              1231.2992              1246.3603
 Red. masses --      1.3910                 1.4494                 1.3419
 Frc consts  --      1.2370                 1.2947                 1.2282
 IR Inten    --      0.1233                 6.4770                 7.3004

                     55                     56                     57
                      A                      A                      A
 Frequencies --   1251.8513              1260.1112              1268.4857
 Red. masses --      1.4081                 1.3250                 1.3849
 Frc consts  --      1.3001                 1.2396                 1.3129
 IR Inten    --      0.0869                 1.0471                 0.5099

                     58                     59                     60
                      A                      A                      A
 Frequencies --   1313.5877              1320.9479              1326.2049
 Red. masses --      1.2371                 1.2590                 1.1876
 Frc consts  --      1.2576                 1.2943                 1.2307
 IR Inten    --      1.6156                 2.0029                 3.8694

                     61                     62                     63
                      A                      A                      A
 Frequencies --   1334.8337              1344.4006              1349.9786
 Red. masses --      1.1696                 1.2956                 1.0889
 Frc consts  --      1.2278                 1.3797                 1.1692
 IR Inten    --      0.3713                 4.1603                 0.5169

                     64                     65                     66
                      A                      A                      A
 Frequencies --   1353.0940              1357.1413              1395.8080
 Red. masses --      1.2438                 1.1665                 1.3506
 Frc consts  --      1.3417                 1.2659                 1.5504
 IR Inten    --      4.0356                 0.7801                 8.2007

                     67                     68                     69
                      A                      A                      A
 Frequencies --   1401.8781              1408.1186              1420.2560
 Red. masses --      1.4041                 1.4918                 1.5347
 Frc consts  --      1.6259                 1.7428                 1.8239
 IR Inten    --      6.5656                 2.5599                 1.2727

                     70                     71                     72
                      A                      A                      A
 Frequencies --   1440.3812              1440.5078              1447.2640
 Red. masses --      1.2385                 1.2416                 1.2561
 Frc consts  --      1.5139                 1.5179                 1.5501
 IR Inten    --      0.5441                 1.6419                 5.4970

                     73                     74                     75
                      A                      A                      A
 Frequencies --   1485.7675              1489.4013              1495.1412
 Red. masses --      1.0840                 1.0857                 1.0859
 Frc consts  --      1.4099                 1.4190                 1.4302
 IR Inten    --      5.1787                 2.9504                 5.1826

                     76                     77                     78
                      A                      A                      A
 Frequencies --   1513.6974              1515.5221              1515.7957
 Red. masses --      1.0736                 1.0681                 1.0616
 Frc consts  --      1.4493                 1.4454                 1.4371
 IR Inten    --      0.4244                 1.0286                 3.4217

                     79                     80                     81
                      A                      A                      A
 Frequencies --   1519.3096              1523.3876              1525.8576
 Red. masses --      1.0727                 1.0680                 1.0688
 Frc consts  --      1.4589                 1.4603                 1.4662
 IR Inten    --      1.6254                 1.2257                 0.2186

                     82                     83                     84
                      A                      A                      A
 Frequencies --   1529.6426              1529.8138              1530.4596
 Red. masses --      1.0411                 1.0411                 1.0456
 Frc consts  --      1.4353                 1.4355                 1.4430
 IR Inten    --      5.2118                 6.9210                11.2826

                     85                     86                     87
                      A                      A                      A
 Frequencies --   1533.0261              1538.7407              1540.2373
 Red. masses --      1.0805                 1.0778                 1.0826
 Frc consts  --      1.4961                 1.5035                 1.5131
 IR Inten    --      9.2445                 4.0947                 2.8381

                     88                     89                     90
                      A                      A                      A
 Frequencies --   3014.9962              3018.7544              3020.0581
 Red. masses --      1.0616                 1.0614                 1.0656
 Frc consts  --      5.6858                 5.6986                 5.7261
 IR Inten    --     20.5556                17.9025                22.6542

                     91                     92                     93
                      A                      A                      A
 Frequencies --   3023.9976              3024.7489              3026.7259
 Red. masses --      1.0593                 1.0647                 1.0616
 Frc consts  --      5.7071                 5.7394                 5.7300
 IR Inten    --     12.2800                45.8936                 4.9015

                     94                     95                     96
                      A                      A                      A
 Frequencies --   3028.7657              3033.3162              3038.3926
 Red. masses --      1.0623                 1.0612                 1.0510
 Frc consts  --      5.7415                 5.7527                 5.7167
 IR Inten    --     21.0792                 1.9656                27.6763

                     97                     98                     99
                      A                      A                      A
 Frequencies --   3041.2448              3042.3159              3046.3487
 Red. masses --      1.0368                 1.0450                 1.0425
 Frc consts  --      5.6501                 5.6987                 5.6999
 IR Inten    --     48.8515                56.1229                26.2102

                    100                    101                    102
                      A                      A                      A
 Frequencies --   3049.1247              3049.6916              3053.6109
 Red. masses --      1.0955                 1.0976                 1.0914
 Frc consts  --      6.0011                 6.0147                 5.9962
 IR Inten    --     12.2951                 3.7808                44.2256

                    103                    104                    105
                      A                      A                      A
 Frequencies --   3058.7038              3065.0738              3068.5251
 Red. masses --      1.1010                 1.1013                 1.1014
 Frc consts  --      6.0687                 6.0959                 6.1103
 IR Inten    --     51.5777                 2.1863                28.5309

                    106                    107                    108
                      A                      A                      A
 Frequencies --   3074.1521              3079.3369              3086.3300
 Red. masses --      1.1022                 1.1025                 1.1031
 Frc consts  --      6.1368                 6.1593                 6.1911
 IR Inten    --     38.9984                27.8863                38.6146

                    109                    110                    111
                      A                      A                      A
 Frequencies --   3106.1637              3106.7381              3106.8646
 Red. masses --      1.1029                 1.1026                 1.1024
 Frc consts  --      6.2697                 6.2702                 6.2697
 IR Inten    --     49.7405               116.5249                18.4849

                    112                    113                    114
                      A                      A                      A
 Frequencies --   3110.6166              3110.9818              3127.7253
 Red. masses --      1.1018                 1.1019                 1.1004
 Frc consts  --      6.2814                 6.2834                 6.3427
 IR Inten    --     35.2119                48.8595                42.8806

 - Thermochemistry -
 -------------------
 Temperature   298.150 Kelvin.  Pressure   1.00000 Atm.
 Atom     1 has atomic number  6 and mass  12.00000

 Molecular mass:   202.18504 amu.
 Principal axes and moments of inertia in atomic units:
                           1         2         3
     Eigenvalues --  3383.831224613.861667143.90767
           X            1.00000  -0.00169   0.00137
           Y            0.00169   0.99999  -0.00293
           Z           -0.00137   0.00293   0.99999
 This molecule is an asymmetric top.
 Rotational symmetry number  1.
 Warning -- assumption of classical behavior for rotation
           may cause significant error
 Rotational temperatures (Kelvin)      0.02560     0.01877     0.01212
 Rotational constants (GHZ):           0.53334     0.39116     0.25263
 Zero-point vibrational energy     976634.0 (Joules/Mol)
                                  233.42112 (Kcal/Mol)
 Warning -- explicit consideration of  24 degrees of freedom as
           vibrations may cause significant error
 Vibrational temperatures:     26.68    33.31    65.17    82.46    85.14
          (Kelvin)            115.97   139.56   143.85   156.65   201.97
                              244.92   291.29   309.76   336.88   353.81
                              359.39   368.66   415.28   420.98   452.85
                              528.83   586.23   658.75   690.79   895.77
                              928.03  1015.56  1031.15  1073.05  1104.64
                             1120.62  1143.34  1148.98  1259.67  1281.34
                             1294.91  1301.39  1313.90  1334.88  1416.98
                             1456.32  1470.37  1528.50  1533.74  1541.30
                             1551.15  1562.13  1591.12  1597.03  1611.30
                             1613.27  1767.66  1771.56  1793.23  1801.13
                             1813.02  1825.07  1889.96  1900.55  1908.11
                             1920.53  1934.29  1942.32  1946.80  1952.62
                             2008.26  2016.99  2025.97  2043.43  2072.39
                             2072.57  2082.29  2137.69  2142.92  2151.17
                             2177.87  2180.50  2180.89  2185.95  2191.81
                             2195.37  2200.81  2201.06  2201.99  2205.68
                             2213.90  2216.06  4337.91  4343.31  4345.19
                             4350.86  4351.94  4354.78  4357.72  4364.27
                             4371.57  4375.67  4377.21  4383.02  4387.01
                             4387.83  4393.46  4400.79  4409.96  4414.92
                             4423.02  4430.48  4440.54  4469.08  4469.90
                             4470.09  4475.48  4476.01  4500.10

 Zero-point correction=                           0.371980 (Hartree/Particle)
 Thermal correction to Energy=                    0.390657
 Thermal correction to Enthalpy=                  0.391601
 Thermal correction to Gibbs Free Energy=         0.322599
 Sum of electronic and zero-point Energies=           -814.535033
 Sum of electronic and thermal Energies=              -814.516356
 Sum of electronic and thermal Enthalpies=            -814.515412
 Sum of electronic and thermal Free Energies=         -814.584414

                     E (Thermal)             CV                S
                      KCal/Mol        Cal/Mol-Kelvin    Cal/Mol-Kelvin
 Total                  245.141             66.369            145.228
 Electronic               0.000              0.000              0.000
 Translational            0.889              2.981             41.817
 Rotational               0.889              2.981             33.078
 Vibrational            243.364             60.407             70.333
 Vibration     1          0.593              1.986              6.784
 Vibration     2          0.593              1.985              6.344
 Vibration     3          0.595              1.979              5.013
 Vibration     4          0.596              1.975              4.548
 Vibration     5          0.597              1.974              4.484
 Vibration     6          0.600              1.962              3.876
 Vibration     7          0.603              1.951              3.514
 Vibration     8          0.604              1.949              3.455
 Vibration     9          0.606              1.942              3.289
 Vibration    10          0.615              1.913              2.799
 Vibration    11          0.625              1.879              2.433
 Vibration    12          0.639              1.836              2.111
 Vibration    13          0.645              1.818              1.998
 Vibration    14          0.654              1.789              1.847
 Vibration    15          0.660              1.770              1.760
 Vibration    16          0.663              1.763              1.732
 Vibration    17          0.666              1.752              1.687
 Vibration    18          0.685              1.695              1.482
 Vibration    19          0.688              1.688              1.459
 Vibration    20          0.702              1.646              1.337
 Vibration    21          0.740              1.539              1.090
 Vibration    22          0.772              1.454              0.936
 Vibration    23          0.816              1.344              0.772
 Vibration    24          0.836              1.294              0.710

 Optimization completed.
    -- Stationary point found.
 Normal termination of Gaussian 16 at Sun Aug 23 09:56:02 2020.
 Gaussian 16:  ES64L-G16RevA.03 25-Dec-2016

 ----------------------------------------------------------------------
 # TD(NStates=10, Root=1) B3LYP/6-31G* scf=qc volume pop=NPA density=cu
 rrent Geom=AllCheck Guess=Read
 ----------------------------------------------------------------------

 Structure from the checkpoint file:  "phosphine_2_conf233.chk"
 -------------------
 Title Card Required
 -------------------
 Charge =  0 Multiplicity = 1

                         Standard orientation:
 ---------------------------------------------------------------------
 Center     Atomic      Atomic             Coordinates (Angstroms)
 Number     Number       Type             X           Y           Z
 ---------------------------------------------------------------------
      1          6           0        3.410230   -3.482230    0.423948
      2          6           0        2.673808   -2.583508   -0.574927
      3          6           0        1.554547   -1.752417    0.071897
      4          6           0        0.822320   -0.857246   -0.938478
      5          1           0        1.545075   -0.201251   -1.441103
      6          1           0        0.392645   -1.481648   -1.735149
      7         15           0       -0.593926    0.250482   -0.372683
      8          6           0       -1.627448   -1.000544    0.584673
      9          1           0       -1.765597   -1.874961   -0.066415
     10          1           0       -1.053215   -1.351907    1.451150
     11          6           0       -3.007237   -0.483281    1.055580
     12          6           0       -4.173403   -0.711474    0.077429
     13          6           0       -4.109952    0.079769   -1.233433
     14          6           0        0.130728    1.205856    1.081739
     15          1           0       -0.702782    1.337260    1.784480
     16          1           0        0.885461    0.609307    1.611707
     17          6           0        0.694859    2.593295    0.729792
     18          6           0        1.937949    2.580697   -0.169351
     19          6           0        2.516997    3.979910   -0.403051
     20          1           0        4.200978   -4.061523   -0.066373
     21          1           0        2.723161   -4.192963    0.899671
     22          1           0        3.876851   -2.890334    1.221116
     23          1           0        2.247672   -3.200365   -1.378836
     24          1           0        3.392290   -1.907350   -1.059653
     25          1           0        1.988480   -1.140341    0.874223
     26          1           0        0.842281   -2.433037    0.557041
     27          1           0       -2.949918    0.586583    1.305055
     28          1           0       -3.259016   -0.991437    1.996255
     29          1           0       -5.107096   -0.457770    0.598359
     30          1           0       -4.237434   -1.786360   -0.147110
     31          1           0       -4.056951    1.158281   -1.042141
     32          1           0       -5.002152   -0.109591   -1.842427
     33          1           0       -3.232079   -0.183177   -1.831701
     34          1           0        0.943500    3.115190    1.665975
     35          1           0       -0.090631    3.190101    0.245726
     36          1           0        1.684709    2.129453   -1.138107
     37          1           0        2.706808    1.935900    0.280907
     38          1           0        1.779664    4.638127   -0.878769
     39          1           0        3.399838    3.945593   -1.051608
     40          1           0        2.815958    4.448021    0.543065
 ---------------------------------------------------------------------

 SCF Done:  E(RB3LYP) =  -814.907013460     a.u. after    1 cycles

 Excitation energies and oscillator strengths:

 Excited State   1:      Singlet-A      6.4718 eV  191.58 nm  f=0.1053  <S**2>=0.000
      57 -> 58         0.69565
 This state for optimization and/or second-order correction.
 Total Energy, E(TD-HF/TD-DFT) =  -814.669179735
 Copying the excited state density for this state as the 1-particle RhoCI density.

 Excited State   2:      Singlet-A      6.5899 eV  188.14 nm  f=0.1389  <S**2>=0.000
      57 -> 59         0.69659

 Excited State   3:      Singlet-A      7.0285 eV  176.40 nm  f=0.0041  <S**2>=0.000
      57 -> 60         0.69823

 Excited State   4:      Singlet-A      7.5451 eV  164.32 nm  f=0.0021  <S**2>=0.000
      57 -> 61         0.62991
      57 -> 62         0.27944

 Excited State   5:      Singlet-A      7.7579 eV  159.82 nm  f=0.0055  <S**2>=0.000
      57 -> 61        -0.28462
      57 -> 62         0.62086
      57 -> 66        -0.10129

 Excited State   6:      Singlet-A      7.8839 eV  157.26 nm  f=0.0551  <S**2>=0.000
      57 -> 63         0.65077
      57 -> 64        -0.23795

 Excited State   7:      Singlet-A      8.1204 eV  152.68 nm  f=0.0167  <S**2>=0.000
      57 -> 63        -0.15470
      57 -> 64        -0.30894
      57 -> 65         0.49432
      57 -> 66         0.32656

 Excited State   8:      Singlet-A      8.1522 eV  152.09 nm  f=0.0008  <S**2>=0.000
      57 -> 63         0.18682
      57 -> 64         0.56788
      57 -> 65         0.28565
      57 -> 66         0.19087

 Excited State   9:      Singlet-A      8.2801 eV  149.74 nm  f=0.0049  <S**2>=0.000
      55 -> 58        -0.26541
      56 -> 58        -0.26501
      56 -> 59         0.23345
      57 -> 65        -0.24181
      57 -> 66         0.45706
      57 -> 67        -0.11631

 Excited State  10:      Singlet-A      8.2867 eV  149.62 nm  f=0.0012  <S**2>=0.000
      55 -> 58        -0.23396
      55 -> 59        -0.13067
      56 -> 58        -0.31316
      56 -> 59         0.34202
      57 -> 65         0.28981
      57 -> 66        -0.32962

 The electronic state is 1-A.
 Alpha  occ. eigenvalues --  -77.06310 -10.18062 -10.18055 -10.18039 -10.18007
 Alpha  occ. eigenvalues --  -10.17991 -10.17934 -10.17801 -10.17730 -10.17590
 Alpha  occ. eigenvalues --  -10.17329 -10.17070 -10.16273  -6.53058  -4.69317
 Alpha  occ. eigenvalues --   -4.69304  -4.68811  -0.79892  -0.78825  -0.78571
 Alpha  occ. eigenvalues --   -0.74012  -0.71695  -0.71106  -0.65502  -0.62744
 Alpha  occ. eigenvalues --   -0.62468  -0.58054  -0.57463  -0.56424  -0.51403
 Alpha  occ. eigenvalues --   -0.46977  -0.46030  -0.45187  -0.44085  -0.42785
 Alpha  occ. eigenvalues --   -0.42445  -0.41851  -0.41668  -0.40248  -0.39889
 Alpha  occ. eigenvalues --   -0.38724  -0.38260  -0.36452  -0.36366  -0.35471
 Alpha  occ. eigenvalues --   -0.34875  -0.34180  -0.33944  -0.32934  -0.32745
 Alpha  occ. eigenvalues --   -0.32588  -0.32045  -0.31845  -0.31610  -0.28962
 Alpha  occ. eigenvalues --   -0.28646  -0.20986
 Alpha virt. eigenvalues --    0.05750   0.05988   0.07981   0.09767   0.10417
 Alpha virt. eigenvalues --    0.11096   0.11642   0.12155   0.12278   0.13358
 Alpha virt. eigenvalues --    0.14144   0.14475   0.14722   0.15564   0.16640

 Mulliken charges:
               1
     1  C   -0.442516
     2  C   -0.244177
     3  C   -0.260173
     4  C   -0.401614
     5  H    0.150787
     6  H    0.132279
     7  P    0.292268
     8  C   -0.429665
     9  H    0.152256
    10  H    0.167920
    11  C   -0.219373
    12  C   -0.239910
    13  C   -0.436451
    14  C   -0.423318
    15  H    0.185904
    16  H    0.159270
    17  C   -0.257650
    18  C   -0.233664
    19  C   -0.443094
    20  H    0.144476
    21  H    0.142396
    22  H    0.141867
    23  H    0.133463
    24  H    0.135159
    25  H    0.135307
    26  H    0.136177
    27  H    0.105494
    28  H    0.105705
    29  H    0.126474
    30  H    0.120615
    31  H    0.140429
    32  H    0.133461
    33  H    0.145573
    34  H    0.128435
    35  H    0.147909
    36  H    0.125976
    37  H    0.121268
    38  H    0.141479
    39  H    0.140729
    40  H    0.138531
 Sum of Mulliken charges =  -0.00000

 Dipole moment (field-independent basis, Debye):
    X=              1.0311    Y=             -0.7656    Z=              0.9298  Tot=              1.5855
 Quadrupole moment (field-independent basis, Debye-Ang):
   XX=            -97.9373   YY=            -95.1674   ZZ=            -95.5319
   XY=             -0.0189   XZ=              0.5289   YZ=              1.4967

 Summary of Natural Population Analysis:

                                       Natural Population
                Natural  -----------------------------------------------
    Atom  No    Charge         Core      Valence    Rydberg      Total
 -----------------------------------------------------------------------
      C    1   -0.67408      1.99946     4.66709    0.00753     6.67408
      C    2   -0.45111      1.99934     4.44063    0.01113     6.45111
      C    3   -0.45233      1.99929     4.44051    0.01253     6.45233
      C    4   -0.85937      1.99932     4.83555    0.02450     6.85937
      H    5    0.24829      0.00000     0.74704    0.00467     0.75171
      H    6    0.23834      0.00000     0.75735    0.00432     0.76166
      P    7    0.97765      9.99768     3.90178    0.12288    14.02235
      C    8   -0.81756      1.99931     4.79576    0.02248     6.81756
      H    9    0.24360      0.00000     0.75379    0.00262     0.75640
      H   10    0.26202      0.00000     0.73432    0.00366     0.73798
      C   11   -0.46475      1.99932     4.45091    0.01452     6.46475
      C   12   -0.45340      1.99935     4.44311    0.01094     6.45340
      C   13   -0.67678      1.99945     4.66904    0.00829     6.67678
      C   14   -0.74497      1.99928     4.72951    0.01618     6.74497
      H   15    0.26165      0.00000     0.73643    0.00191     0.73835
      H   16    0.23861      0.00000     0.75377    0.00762     0.76139
      C   17   -0.45941      1.99932     4.44619    0.01390     6.45941
      C   18   -0.45685      1.99934     4.44682    0.01069     6.45685
      C   19   -0.67353      1.99946     4.66629    0.00778     6.67353
      H   20    0.23312      0.00000     0.76559    0.00129     0.76688
      H   21    0.22467      0.00000     0.77418    0.00115     0.77533
      H   22    0.22429      0.00000     0.77459    0.00112     0.77571
      H   23    0.22864      0.00000     0.76921    0.00215     0.77136
      H   24    0.22916      0.00000     0.76903    0.00181     0.77084
      H   25    0.22282      0.00000     0.77478    0.00240     0.77718
      H   26    0.22601      0.00000     0.77125    0.00274     0.77399
      H   27    0.20868      0.00000     0.78021    0.01112     0.79132
      H   28    0.22195      0.00000     0.77068    0.00738     0.77805
      H   29    0.22907      0.00000     0.76817    0.00276     0.77093
      H   30    0.22051      0.00000     0.77594    0.00354     0.77949
      H   31    0.22466      0.00000     0.77088    0.00446     0.77534
      H   32    0.22606      0.00000     0.77182    0.00212     0.77394
      H   33    0.21749      0.00000     0.78057    0.00194     0.78251
      H   34    0.23019      0.00000     0.76662    0.00318     0.76981
      H   35    0.23546      0.00000     0.76195    0.00259     0.76454
      H   36    0.21405      0.00000     0.77633    0.00961     0.78595
      H   37    0.22011      0.00000     0.77798    0.00190     0.77989
      H   38    0.22394      0.00000     0.77470    0.00137     0.77606
      H   39    0.23084      0.00000     0.76792    0.00123     0.76916
      H   40    0.22226      0.00000     0.77662    0.00112     0.77774
 =======================================================================
   * Total *    0.00000     33.98993    79.63492    0.37514   114.00000

 Normal termination of Gaussian 16 at Sun Aug 23 10:05:04 2020.
