 Gaussian 16, Revision A.03,

 ---------------------------------
 # opt=CalcAll B3LYP/6-31G* scf=qc
 ---------------------------------

 -------------------
 Title Card Required
 -------------------
 Symbolic Z-matrix:
 Charge =  0 Multiplicity = 1

 SCF Done:  E(RB3LYP) =  -1036.27733535     a.u. after    8 cycles
 SCF Done:  E(RB3LYP) =  -1036.29375246     a.u. after   17 cycles
 SCF Done:  E(RB3LYP) =  -1036.29515783     a.u. after   17 cycles
 SCF Done:  E(RB3LYP) =  -1036.29635564     a.u. after   17 cycles
 SCF Done:  E(RB3LYP) =  -1036.29742910     a.u. after   17 cycles
 SCF Done:  E(RB3LYP) =  -1036.29596524     a.u. after   19 cycles
 SCF Done:  E(RB3LYP) =  -1036.29741672     a.u. after   16 cycles
 SCF Done:  E(RB3LYP) =  -1036.29799437     a.u. after   16 cycles
 SCF Done:  E(RB3LYP) =  -1036.29805364     a.u. after   17 cycles
 SCF Done:  E(RB3LYP) =  -1036.29823062     a.u. after   13 cycles
 SCF Done:  E(RB3LYP) =  -1036.29823142     a.u. after    3 cycles
 SCF Done:  E(RB3LYP) =  -1036.29822999     a.u. after    3 cycles
 SCF Done:  E(RB3LYP) =  -1036.29823273     a.u. after    3 cycles
 SCF Done:  E(RB3LYP) =  -1036.29822945     a.u. after    2 cycles
 SCF Done:  E(RB3LYP) =  -1036.29822939     a.u. after    6 cycles
 SCF Done:  E(RB3LYP) =  -1036.29823340     a.u. after    2 cycles
 SCF Done:  E(RB3LYP) =  -1036.29822922     a.u. after    2 cycles
 SCF Done:  E(RB3LYP) =  -1036.29823323     a.u. after    2 cycles
 Optimization completed.
    -- Stationary point found.
 Normal termination of Gaussian 16 at Sun Aug 23 05:46:28 2020.

 ----------------------------------------------------------------------
 # freq B3LYP/6-31G* scf=qc volume NMR pop=NPA density=current Geom=All
 Check Guess=Read
 ----------------------------------------------------------------------

 Structure from the checkpoint file:  "phosphine_1_conf142.chk"
 -------------------
 Title Card Required
 -------------------
 Charge =  0 Multiplicity = 1

 SCF Done:  E(RB3LYP) =  -1036.29823323     a.u. after    1 cycles

      1  C    Isotropic =    68.1672   Anisotropy =   167.3385

      2  C    Isotropic =    68.7269   Anisotropy =   164.1167

      3  C    Isotropic =    61.0068   Anisotropy =   164.1181

      4  C    Isotropic =    56.1261   Anisotropy =   179.4364

      5  C    Isotropic =    62.5754   Anisotropy =   174.0730

      6  C    Isotropic =    68.6781   Anisotropy =   163.8956

      7  P    Isotropic =   361.4302   Anisotropy =    39.6240

      8  C    Isotropic =    56.1152   Anisotropy =   179.4586

      9  C    Isotropic =    62.6040   Anisotropy =   174.0707

     10  C    Isotropic =    68.6872   Anisotropy =   163.8947

     11  C    Isotropic =    68.1681   Anisotropy =   167.3042

     12  C    Isotropic =    68.7285   Anisotropy =   164.0992

     13  C    Isotropic =    61.0320   Anisotropy =   164.1426

     14  C    Isotropic =    56.1128   Anisotropy =   179.4364

     15  C    Isotropic =    60.9989   Anisotropy =   164.1045

     16  C    Isotropic =    68.7203   Anisotropy =   164.1360

     17  C    Isotropic =    68.1623   Anisotropy =   167.3514

     18  C    Isotropic =    68.6822   Anisotropy =   163.8833

     19  C    Isotropic =    62.5722   Anisotropy =   174.0575

     20  H    Isotropic =    25.0199   Anisotropy =     3.6407

     21  H    Isotropic =    24.9284   Anisotropy =     4.5859

     22  H    Isotropic =    24.6132   Anisotropy =     9.2511

     23  H    Isotropic =    25.3981   Anisotropy =    12.2330

     24  H    Isotropic =    25.0470   Anisotropy =     6.0884

     25  H    Isotropic =    25.4007   Anisotropy =    12.2334

     26  H    Isotropic =    25.0491   Anisotropy =     6.0858

     27  H    Isotropic =    25.0226   Anisotropy =     3.6378

     28  H    Isotropic =    24.9296   Anisotropy =     4.5846

     29  H    Isotropic =    24.6138   Anisotropy =     9.2540

     30  H    Isotropic =    24.6116   Anisotropy =     9.2527

     31  H    Isotropic =    24.9250   Anisotropy =     4.5904

     32  H    Isotropic =    25.0193   Anisotropy =     3.6426

     33  H    Isotropic =    25.0480   Anisotropy =     6.0853

     34  H    Isotropic =    25.3981   Anisotropy =    12.2239

  Exact polarizability: 224.125  -0.032 224.094   0.018  -0.030 165.085
 Approx polarizability: 330.880  -0.080 330.817   0.043  -0.073 308.125

                      1                      2                      3
                      A                      A                      A
 Frequencies --     22.3175                24.4250                38.2188
 Red. masses --      3.7967                 3.7948                 3.6891
 Frc consts  --      0.0011                 0.0013                 0.0032
 IR Inten    --      0.2811                 0.2812                 0.0027

                      4                      5                      6
                      A                      A                      A
 Frequencies --     53.2829                53.5007                70.5822
 Red. masses --      5.2512                 5.2578                 5.1674
 Frc consts  --      0.0088                 0.0089                 0.0152
 IR Inten    --      0.0845                 0.0866                 0.3102

                      7                      8                      9
                      A                      A                      A
 Frequencies --    181.4862               202.3097               202.6960
 Red. masses --      4.5603                 4.6427                 4.6422
 Frc consts  --      0.0885                 0.1120                 0.1124
 IR Inten    --      0.3527                 1.1359                 1.1356

                     10                     11                     12
                      A                      A                      A
 Frequencies --    245.5539               259.7427               260.0011
 Red. masses --      5.7389                 4.7204                 4.7221
 Frc consts  --      0.2039                 0.1876                 0.1881
 IR Inten    --      0.4820                 0.2270                 0.2232

                     13                     14                     15
                      A                      A                      A
 Frequencies --    408.7497               408.8719               412.3419
 Red. masses --      3.0777                 3.0801                 3.5731
 Frc consts  --      0.3030                 0.3034                 0.3579
 IR Inten    --      1.9542                 1.9693                 0.1548

                     16                     17                     18
                      A                      A                      A
 Frequencies --    417.1172               429.4022               429.5693
 Red. masses --      4.6480                 7.3044                 7.3200
 Frc consts  --      0.4765                 0.7935                 0.7958
 IR Inten    --      0.5678                 7.6728                 7.7342

                     19                     20                     21
                      A                      A                      A
 Frequencies --    509.4153               509.5712               516.3979
 Red. masses --      4.2468                 4.2448                 4.5889
 Frc consts  --      0.6493                 0.6494                 0.7210
 IR Inten    --     26.1672                26.0735                11.9778

                     22                     23                     24
                      A                      A                      A
 Frequencies --    632.7116               632.7426               633.3635
 Red. masses --      6.4271                 6.4271                 6.4369
 Frc consts  --      1.5159                 1.5161                 1.5214
 IR Inten    --      0.1812                 0.1798                 0.0162

                     25                     26                     27
                      A                      A                      A
 Frequencies --    691.8961               705.1577               705.2406
 Red. masses --      6.5806                 5.6984                 5.7675
 Frc consts  --      1.8561                 1.6694                 1.6901
 IR Inten    --      0.7837                 1.1820                 1.0893

                     28                     29                     30
                      A                      A                      A
 Frequencies --    712.1835               712.3536               713.2753
 Red. masses --      2.2046                 2.1940                 2.1324
 Frc consts  --      0.6588                 0.6560                 0.6392
 IR Inten    --     26.3536                26.3674                16.6793

                     31                     32                     33
                      A                      A                      A
 Frequencies --    761.4065               762.9047               762.9250
 Red. masses --      1.6161                 1.6471                 1.6498
 Frc consts  --      0.5520                 0.5648                 0.5658
 IR Inten    --     19.1616                24.9551                24.8707

                     34                     35                     36
                      A                      A                      A
 Frequencies --    866.1505               866.2308               868.7160
 Red. masses --      1.2478                 1.2477                 1.2463
 Frc consts  --      0.5515                 0.5516                 0.5541
 IR Inten    --      0.2284                 0.2189                 0.1337

                     37                     38                     39
                      A                      A                      A
 Frequencies --    932.9426               932.9957               934.2062
 Red. masses --      1.3444                 1.3440                 1.3386
 Frc consts  --      0.6894                 0.6893                 0.6883
 IR Inten    --      1.2663                 1.2509                 0.0326

                     40                     41                     42
                      A                      A                      A
 Frequencies --    975.7694               975.8521               977.5970
 Red. masses --      1.3614                 1.3612                 1.3557
 Frc consts  --      0.7637                 0.7637                 0.7634
 IR Inten    --      0.0162                 0.0153                 0.1420

                     43                     44                     45
                      A                      A                      A
 Frequencies --   1000.3660              1000.3907              1001.0905
 Red. masses --      1.2544                 1.2542                 1.2525
 Frc consts  --      0.7396                 0.7395                 0.7396
 IR Inten    --      0.0805                 0.0782                 0.0005

                     46                     47                     48
                      A                      A                      A
 Frequencies --   1015.3631              1015.3747              1015.7551
 Red. masses --      6.3117                 6.3121                 6.3112
 Frc consts  --      3.8339                 3.8342                 3.8366
 IR Inten    --      4.3701                 4.3622                 0.0454

                     49                     50                     51
                      A                      A                      A
 Frequencies --   1052.6967              1052.7523              1052.9271
 Red. masses --      3.3104                 3.3205                 3.2545
 Frc consts  --      2.1614                 2.1682                 2.1258
 IR Inten    --      2.0975                 2.0742                 0.0422

                     52                     53                     54
                      A                      A                      A
 Frequencies --   1107.7660              1108.2927              1109.5153
 Red. masses --      1.8833                 1.8439                 1.6555
 Frc consts  --      1.3617                 1.3344                 1.2007
 IR Inten    --      4.2454                 3.6156                 2.8129

                     55                     56                     57
                      A                      A                      A
 Frequencies --   1110.7790              1110.8879              1116.2106
 Red. masses --      2.1905                 2.2472                 2.6128
 Frc consts  --      1.5924                 1.6339                 1.9180
 IR Inten    --      9.4146                10.0154                 1.2557

                     58                     59                     60
                      A                      A                      A
 Frequencies --   1193.5086              1193.9172              1193.9582
 Red. masses --      1.1034                 1.1001                 1.1000
 Frc consts  --      0.9260                 0.9239                 0.9239
 IR Inten    --      0.0013                 0.1337                 0.1256

                     61                     62                     63
                      A                      A                      A
 Frequencies --   1219.1602              1219.6206              1220.9434
 Red. masses --      1.1475                 1.1478                 1.1474
 Frc consts  --      1.0049                 1.0059                 1.0077
 IR Inten    --      6.0639                 5.9213                 0.5014

                     64                     65                     66
                      A                      A                      A
 Frequencies --   1325.0441              1328.6533              1328.9817
 Red. masses --      3.4989                 3.4754                 3.5416
 Frc consts  --      3.6195                 3.6147                 3.6854
 IR Inten    --      2.6306                 2.4347                 2.4450

                     67                     68                     69
                      A                      A                      A
 Frequencies --   1365.0951              1365.3991              1365.8572
 Red. masses --      1.6595                 1.6509                 1.6344
 Frc consts  --      1.8220                 1.8134                 1.7965
 IR Inten    --      0.1471                 1.2911                 1.9655

                     70                     71                     72
                      A                      A                      A
 Frequencies --   1480.5166              1480.9541              1481.0536
 Red. masses --      2.1105                 2.1149                 2.1163
 Frc consts  --      2.7257                 2.7329                 2.7351
 IR Inten    --     16.5937                 6.5849                 6.6928

                     73                     74                     75
                      A                      A                      A
 Frequencies --   1531.1166              1531.5611              1531.7141
 Red. masses --      2.0148                 1.9990                 1.9967
 Frc consts  --      2.7830                 2.7627                 2.7600
 IR Inten    --      2.0392                10.1450                10.1467

                     76                     77                     78
                      A                      A                      A
 Frequencies --   1630.1698              1630.4185              1630.4867
 Red. masses --      5.1000                 5.1133                 5.1107
 Frc consts  --      7.9852                 8.0085                 8.0051
 IR Inten    --      0.3981                 0.0446                 0.0467

                     79                     80                     81
                      A                      A                      A
 Frequencies --   1646.1647              1646.2008              1647.9780
 Red. masses --      5.2715                 5.2688                 5.2819
 Frc consts  --      8.4165                 8.4125                 8.4517
 IR Inten    --      3.5024                 3.5255                 0.3193

                     82                     83                     84
                      A                      A                      A
 Frequencies --   3176.1088              3176.1186              3176.1641
 Red. masses --      1.0854                 1.0853                 1.0853
 Frc consts  --      6.4508                 6.4507                 6.4509
 IR Inten    --      2.4061                 1.7036                 1.8807

                     85                     86                     87
                      A                      A                      A
 Frequencies --   3182.6611              3182.6846              3182.7582
 Red. masses --      1.0875                 1.0875                 1.0876
 Frc consts  --      6.4902                 6.4903                 6.4912
 IR Inten    --      0.7891                 0.7283                 0.1785

                     88                     89                     90
                      A                      A                      A
 Frequencies --   3192.8419              3192.8618              3192.9865
 Red. masses --      1.0916                 1.0916                 1.0917
 Frc consts  --      6.5567                 6.5567                 6.5578
 IR Inten    --     10.1753                10.5348                47.3174

                     91                     92                     93
                      A                      A                      A
 Frequencies --   3203.8808              3203.9057              3204.2982
 Red. masses --      1.0941                 1.0941                 1.0942
 Frc consts  --      6.6168                 6.6171                 6.6194
 IR Inten    --     41.0345                41.4861                 4.4320

                     94                     95                     96
                      A                      A                      A
 Frequencies --   3210.0209              3210.0792              3210.9664
 Red. masses --      1.0957                 1.0957                 1.0956
 Frc consts  --      6.6523                 6.6521                 6.6557
 IR Inten    --     20.5375                20.0567                16.2837

 - Thermochemistry -
 -------------------
 Temperature   298.150 Kelvin.  Pressure   1.00000 Atm.
 Atom     1 has atomic number  6 and mass  12.00000

 Molecular mass:   262.09114 amu.
 Principal axes and moments of inertia in atomic units:
                           1         2         3
     Eigenvalues --  5162.711925163.201168679.95192
           X            0.99673  -0.08079   0.00001
           Y            0.08079   0.99673  -0.00001
           Z           -0.00001   0.00001   1.00000
 This molecule is an asymmetric top.
 Rotational symmetry number  1.
 Warning -- assumption of classical behavior for rotation
           may cause significant error
 Rotational temperatures (Kelvin)      0.01678     0.01678     0.00998
 Rotational constants (GHZ):           0.34957     0.34954     0.20792
 Zero-point vibrational energy     719967.4 (Joules/Mol)
                                  172.07634 (Kcal/Mol)
 Warning -- explicit consideration of  21 degrees of freedom as
           vibrations may cause significant error
 Vibrational temperatures:     32.11    35.14    54.99    76.66    76.98
          (Kelvin)            101.55   261.12   291.08   291.63   353.30
                              373.71   374.08   588.10   588.28   593.27
                              600.14   617.81   618.05   732.93   733.16
                              742.98   910.33   910.38   911.27   995.48
                             1014.56  1014.68  1024.67  1024.92  1026.24
                             1095.49  1097.65  1097.68  1246.20  1246.31
                             1249.89  1342.30  1342.37  1344.11  1403.91
                             1404.03  1406.54  1439.30  1439.34  1440.35
                             1460.88  1460.90  1461.45  1514.60  1514.68
                             1514.93  1593.83  1594.59  1596.35  1598.16
                             1598.32  1605.98  1717.19  1717.78  1717.84
                             1754.10  1754.76  1756.67  1906.44  1911.64
                             1912.11  1964.07  1964.50  1965.16  2130.13
                             2130.76  2130.91  2202.94  2203.57  2203.79
                             2345.45  2345.81  2345.91  2368.46  2368.52
                             2371.07  4569.71  4569.73  4569.79  4579.14
                             4579.17  4579.28  4593.79  4593.82  4594.00
                             4609.67  4609.71  4610.27  4618.50  4618.59
                             4619.86

 Zero-point correction=                           0.274221 (Hartree/Particle)
 Thermal correction to Energy=                    0.290142
 Thermal correction to Enthalpy=                  0.291087
 Thermal correction to Gibbs Free Energy=         0.227758
 Sum of electronic and zero-point Energies=          -1036.024012
 Sum of electronic and thermal Energies=             -1036.008091
 Sum of electronic and thermal Enthalpies=           -1036.007147
 Sum of electronic and thermal Free Energies=        -1036.070475

                     E (Thermal)             CV                S
                      KCal/Mol        Cal/Mol-Kelvin    Cal/Mol-Kelvin
 Total                  182.067             62.537            133.286
 Electronic               0.000              0.000              0.000
 Translational            0.889              2.981             42.590
 Rotational               0.889              2.981             33.803
 Vibrational            180.290             56.575             56.893
 Vibration     1          0.593              1.985              6.417
 Vibration     2          0.593              1.985              6.237
 Vibration     3          0.594              1.982              5.349
 Vibration     4          0.596              1.976              4.692
 Vibration     5          0.596              1.976              4.684
 Vibration     6          0.598              1.968              4.137
 Vibration     7          0.630              1.865              2.313
 Vibration     8          0.639              1.837              2.112
 Vibration     9          0.639              1.836              2.108
 Vibration    10          0.660              1.770              1.762
 Vibration    11          0.668              1.746              1.664
 Vibration    12          0.668              1.746              1.662
 Vibration    13          0.773              1.451              0.931
 Vibration    14          0.773              1.451              0.931
 Vibration    15          0.776              1.443              0.918
 Vibration    16          0.780              1.433              0.902
 Vibration    17          0.791              1.406              0.861
 Vibration    18          0.791              1.406              0.860
 Vibration    19          0.865              1.229              0.635
 Vibration    20          0.865              1.229              0.635
 Vibration    21          0.871              1.214              0.618

                           ! Non-Optimized Parameters !
 Normal termination of Gaussian 16 at Sun Aug 23 05:57:02 2020.
 Gaussian 16:  ES64L-G16RevA.03 25-Dec-2016

 ----------------------------------------------------------------------
 # TD(NStates=10, Root=1) B3LYP/6-31G* scf=qc volume pop=NPA density=cu
 rrent Geom=AllCheck Guess=Read
 ----------------------------------------------------------------------

 Structure from the checkpoint file:  "phosphine_1_conf143.chk"
 -------------------
 Title Card Required
 -------------------
 Charge =  0 Multiplicity = 1

                         Standard orientation:
 ---------------------------------------------------------------------
 Center     Atomic      Atomic             Coordinates (Angstroms)
 Number     Number       Type             X           Y           Z
 ---------------------------------------------------------------------
      1          6           0        4.273401    0.243855    0.651658
      2          6           0        4.018489   -0.493527   -0.506571
      3          6           0        2.727901   -0.542228   -1.033017
      4          6           0        1.665823    0.128211   -0.402794
      5          6           0        1.935875    0.867752    0.758797
      6          6           0        3.230389    0.926244    1.279775
      7         15           0        0.000005   -0.000035   -1.206718
      8          6           0       -0.721936   -1.506745   -0.402746
      9          6           0       -0.215459   -2.111562    0.757778
     10          6           0       -0.812268   -3.261813    1.278723
     11          6           0       -1.925975   -3.822614    0.651653
     12          6           0       -2.438126   -3.231996   -0.505540
     13          6           0       -1.834817   -2.090082   -1.031977
     14          6           0       -0.943943    1.378438   -0.402639
     15          6           0       -0.895250    2.633191   -1.033419
     16          6           0       -1.582477    3.726572   -0.506767
     17          6           0       -2.347379    3.578915    0.652245
     18          6           0       -2.415985    2.334664    1.280930
     19          6           0       -1.718291    1.242791    0.759738
     20          1           0        5.280269    0.291525    1.058151
     21          1           0        4.826393   -1.021841   -1.006272
     22          1           0        2.541051   -1.102570   -1.946378
     23          1           0        1.133296    1.403569    1.256664
     24          1           0        3.422631    1.506066    2.179112
     25          1           0        0.650862   -1.685395    1.254725
     26          1           0       -0.405428   -3.719140    2.177217
     27          1           0       -2.388279   -4.718346    1.058137
     28          1           0       -3.300568   -3.666533   -1.004436
     29          1           0       -2.227534   -1.647220   -1.944539
     30          1           0       -0.317470    2.751301   -1.947388
     31          1           0       -1.529617    4.690213   -1.006892
     32          1           0       -2.891926    4.427071    1.058927
     33          1           0       -3.013374    2.211474    2.180880
     34          1           0       -1.780230    0.279945    1.257914
 ---------------------------------------------------------------------

 SCF Done:  E(RB3LYP) =  -1036.29823323     a.u. after    1 cycles

 Excitation energies and oscillator strengths:

 Excited State   1:      Singlet-A      4.5102 eV  274.90 nm  f=0.1276  <S**2>=0.000
      69 -> 70         0.69646
 This state for optimization and/or second-order correction.
 Total Energy, E(TD-HF/TD-DFT) =  -1036.13248651
 Copying the excited state density for this state as the 1-particle RhoCI density.

 Excited State   2:      Singlet-A      4.5112 eV  274.84 nm  f=0.1281  <S**2>=0.000
      69 -> 71         0.69644

 Excited State   3:      Singlet-A      4.7574 eV  260.61 nm  f=0.0022  <S**2>=0.000
      67 -> 70         0.12416
      68 -> 71         0.12438
      69 -> 72         0.67463

 Excited State   4:      Singlet-A      5.0580 eV  245.12 nm  f=0.0002  <S**2>=0.000
      66 -> 70        -0.15947
      67 -> 71         0.12603
      68 -> 70         0.12597
      69 -> 74         0.62927

 Excited State   5:      Singlet-A      5.0584 eV  245.11 nm  f=0.0002  <S**2>=0.000
      66 -> 71         0.15975
      67 -> 70        -0.12648
      68 -> 71         0.12637
      69 -> 75         0.62899

 Excited State   6:      Singlet-A      5.1512 eV  240.69 nm  f=0.0085  <S**2>=0.000
      69 -> 73         0.67914

 Excited State   7:      Singlet-A      5.4274 eV  228.44 nm  f=0.0147  <S**2>=0.000
      63 -> 72        -0.16614
      64 -> 74         0.14837
      65 -> 75         0.14737
      67 -> 70         0.41431
      68 -> 71         0.41103
      69 -> 72        -0.16526

 Excited State   8:      Singlet-A      5.5142 eV  224.85 nm  f=0.0005  <S**2>=0.000
      63 -> 74         0.14272
      64 -> 70         0.10883
      64 -> 72        -0.22710
      64 -> 74         0.10088
      65 -> 71         0.10883
      65 -> 72         0.16840
      65 -> 75        -0.10079
      66 -> 70         0.22501
      67 -> 71        -0.26606
      68 -> 70        -0.26858
      68 -> 72        -0.16001
      69 -> 74         0.28509

 Excited State   9:      Singlet-A      5.5147 eV  224.83 nm  f=0.0004  <S**2>=0.000
      63 -> 75         0.14295
      64 -> 71         0.10742
      64 -> 72        -0.16855
      64 -> 75        -0.10083
      65 -> 70        -0.10845
      65 -> 72        -0.22712
      65 -> 74        -0.10023
      66 -> 71        -0.22436
      67 -> 70         0.26554
      67 -> 72        -0.16045
      68 -> 71        -0.27031
      69 -> 75         0.28554

 Excited State  10:      Singlet-A      5.6181 eV  220.69 nm  f=0.0009  <S**2>=0.000
      67 -> 71        -0.47687
      68 -> 70         0.48051

 The electronic state is 1-A.
 Alpha  occ. eigenvalues --  -77.08112 -10.19447 -10.19446 -10.19446 -10.19147
 Alpha  occ. eigenvalues --  -10.19147 -10.19145 -10.19117 -10.19117 -10.19116
 Alpha  occ. eigenvalues --  -10.19031 -10.19030 -10.19029 -10.19007 -10.19007
 Alpha  occ. eigenvalues --  -10.19006 -10.18962 -10.18962 -10.18960  -6.54843
 Alpha  occ. eigenvalues --   -4.71102  -4.71102  -4.70601  -0.85560  -0.84846
 Alpha  occ. eigenvalues --   -0.84845  -0.76669  -0.74366  -0.74366  -0.74329
 Alpha  occ. eigenvalues --   -0.73821  -0.73821  -0.64436  -0.60336  -0.60307
 Alpha  occ. eigenvalues --   -0.60306  -0.59207  -0.59206  -0.55448  -0.51435
 Alpha  occ. eigenvalues --   -0.51435  -0.49296  -0.45440  -0.45439  -0.44774
 Alpha  occ. eigenvalues --   -0.44344  -0.44344  -0.44068  -0.41946  -0.41868
 Alpha  occ. eigenvalues --   -0.41868  -0.40378  -0.40377  -0.36844  -0.36352
 Alpha  occ. eigenvalues --   -0.36350  -0.35898  -0.34252  -0.34251  -0.34224
 Alpha  occ. eigenvalues --   -0.31884  -0.31883  -0.26775  -0.25448  -0.25446
 Alpha  occ. eigenvalues --   -0.25243  -0.24704  -0.24703  -0.21145
 Alpha virt. eigenvalues --   -0.01881  -0.01878  -0.00830   0.00173   0.00427
 Alpha virt. eigenvalues --    0.00430   0.06881   0.06887   0.09493   0.11039
 Alpha virt. eigenvalues --    0.11039   0.13903   0.14529   0.14529   0.15165

 Mulliken charges:
               1
     1  C   -0.156507
     2  C   -0.118308
     3  C   -0.175722
     4  C   -0.125307
     5  C   -0.162868
     6  C   -0.122771
     7  P    0.450687
     8  C   -0.080555
     9  C   -0.148818
    10  C   -0.119545
    11  C   -0.120680
    12  C   -0.119247
    13  C   -0.155829
    14  C   -0.115334
    15  C   -0.160701
    16  C   -0.125513
    17  C   -0.158966
    18  C   -0.115771
    19  C   -0.173894
    20  H    0.117287
    21  H    0.120091
    22  H    0.119459
    23  H    0.148709
    24  H    0.124980
    25  H    0.175946
    26  H    0.148235
    27  H    0.147825
    28  H    0.144352
    29  H    0.150620
    30  H    0.124006
    31  H    0.120095
    32  H    0.115435
    33  H    0.122463
    34  H    0.126146
 Sum of Mulliken charges =  -0.00000

 Dipole moment (field-independent basis, Debye):
    X=             -1.4523    Y=             -3.4578    Z=             -0.1962  Tot=              3.7555
 Quadrupole moment (field-independent basis, Debye-Ang):
   XX=           -117.4093   YY=           -109.6623   ZZ=           -110.6586
   XY=              5.8336   XZ=              0.3060   YZ=             -1.3116

 Summary of Natural Population Analysis:

                                       Natural Population
                Natural  -----------------------------------------------
    Atom  No    Charge         Core      Valence    Rydberg      Total
 -----------------------------------------------------------------------
      C    1   -0.27171      1.99909     4.25658    0.01603     6.27171
      C    2   -0.23604      1.99910     4.22232    0.01462     6.23604
      C    3   -0.23733      1.99902     4.22208    0.01624     6.23733
      C    4   -0.46724      1.99888     4.44207    0.02629     6.46724
      C    5   -0.23431      1.99899     4.21783    0.01749     6.23431
      C    6   -0.23662      1.99909     4.22290    0.01463     6.23662
      P    7    1.24219      9.99750     3.71007    0.05024    13.75781
      C    8   -0.37564      1.99890     4.35198    0.02476     6.37564
      C    9   -0.20634      1.99900     4.19124    0.01610     6.20634
      C   10   -0.22920      1.99909     4.21608    0.01403     6.22920
      C   11   -0.19573      1.99909     4.18296    0.01367     6.19573
      C   12   -0.23561      1.99910     4.22226    0.01425     6.23561
      C   13   -0.20117      1.99902     4.18708    0.01508     6.20117
      C   14   -0.45368      1.99887     4.43036    0.02446     6.45368
      C   15   -0.21582      1.99901     4.20089    0.01591     6.21582
      C   16   -0.24896      1.99910     4.23477    0.01509     6.24896
      C   17   -0.27712      1.99909     4.26190    0.01612     6.27712
      C   18   -0.22426      1.99909     4.21082    0.01436     6.22426
      C   19   -0.26225      1.99899     4.24546    0.01780     6.26225
      H   20    0.22958      0.00000     0.76951    0.00091     0.77042
      H   21    0.23224      0.00000     0.76680    0.00095     0.76776
      H   22    0.22614      0.00000     0.77289    0.00097     0.77386
      H   23    0.24592      0.00000     0.75252    0.00156     0.75408
      H   24    0.23560      0.00000     0.76351    0.00089     0.76440
      H   25    0.26148      0.00000     0.73733    0.00120     0.73852
      H   26    0.24629      0.00000     0.75285    0.00086     0.75371
      H   27    0.24280      0.00000     0.75638    0.00082     0.75720
      H   28    0.24388      0.00000     0.75524    0.00089     0.75612
      H   29    0.24307      0.00000     0.75572    0.00121     0.75693
      H   30    0.22996      0.00000     0.76890    0.00114     0.77004
      H   31    0.23295      0.00000     0.76617    0.00088     0.76705
      H   32    0.22888      0.00000     0.77023    0.00089     0.77112
      H   33    0.23428      0.00000     0.76484    0.00088     0.76572
      H   34    0.23380      0.00000     0.76483    0.00137     0.76620
 =======================================================================
   * Total *    0.00000     45.98001    91.64740    0.37260   138.00000

 Normal termination of Gaussian 16 at Sun Aug 23 06:08:31 2020.
