 Gaussian 16, Revision A.03,

 ---------------------------------
 # opt=CalcAll B3LYP/6-31G* scf=qc
 ---------------------------------

 -------------------
 Title Card Required
 -------------------
 Symbolic Z-matrix:
 Charge =  0 Multiplicity = 1

 SCF Done:  E(RB3LYP) =  -1036.27045695     a.u. after    8 cycles
 SCF Done:  E(RB3LYP) =  -1036.27981919     a.u. after   15 cycles
 SCF Done:  E(RB3LYP) =  -1036.28459616     a.u. after   15 cycles
 SCF Done:  E(RB3LYP) =  -1036.29370134     a.u. after   19 cycles
 SCF Done:  E(RB3LYP) =  -1036.29654032     a.u. after   15 cycles
 SCF Done:  E(RB3LYP) =  -1036.29765024     a.u. after   15 cycles
 SCF Done:  E(RB3LYP) =  -1036.29808175     a.u. after   15 cycles
 SCF Done:  E(RB3LYP) =  -1036.29818718     a.u. after   15 cycles
 SCF Done:  E(RB3LYP) =  -1036.29823462     a.u. after    9 cycles
 SCF Done:  E(RB3LYP) =  -1036.29823572     a.u. after    4 cycles
 SCF Done:  E(RB3LYP) =  -1036.29823766     a.u. after    3 cycles
 SCF Done:  E(RB3LYP) =  -1036.29823839     a.u. after    2 cycles
 SCF Done:  E(RB3LYP) =  -1036.29823290     a.u. after    2 cycles
 SCF Done:  E(RB3LYP) =  -1036.29823183     a.u. after    3 cycles
 SCF Done:  E(RB3LYP) =  -1036.29823337     a.u. after    2 cycles
 SCF Done:  E(RB3LYP) =  -1036.29823570     a.u. after    5 cycles
 SCF Done:  E(RB3LYP) =  -1036.29823303     a.u. after    4 cycles
 SCF Done:  E(RB3LYP) =  -1036.29823067     a.u. after    2 cycles
 Optimization completed.
    -- Stationary point found.
 Normal termination of Gaussian 16 at Sun Aug 23 06:00:19 2020.

 ----------------------------------------------------------------------
 # freq B3LYP/6-31G* scf=qc volume NMR pop=NPA density=current Geom=All
 Check Guess=Read
 ----------------------------------------------------------------------

 Structure from the checkpoint file:  "phosphine_1_conf162.chk"
 -------------------
 Title Card Required
 -------------------
 Charge =  0 Multiplicity = 1

 SCF Done:  E(RB3LYP) =  -1036.29823067     a.u. after    1 cycles

      1  C    Isotropic =    68.1743   Anisotropy =   167.2768

      2  C    Isotropic =    68.6824   Anisotropy =   163.8950

      3  C    Isotropic =    62.6220   Anisotropy =   174.0848

      4  C    Isotropic =    56.1170   Anisotropy =   179.4721

      5  C    Isotropic =    61.0464   Anisotropy =   164.1711

      6  C    Isotropic =    68.7327   Anisotropy =   164.0900

      7  P    Isotropic =   361.4767   Anisotropy =    39.6397

      8  C    Isotropic =    56.1413   Anisotropy =   179.4293

      9  C    Isotropic =    62.5617   Anisotropy =   174.0874

     10  C    Isotropic =    68.6751   Anisotropy =   163.8967

     11  C    Isotropic =    68.1589   Anisotropy =   167.3526

     12  C    Isotropic =    68.7248   Anisotropy =   164.1295

     13  C    Isotropic =    60.9893   Anisotropy =   164.1090

     14  C    Isotropic =    56.1070   Anisotropy =   179.4511

     15  C    Isotropic =    61.0021   Anisotropy =   164.1058

     16  C    Isotropic =    68.7190   Anisotropy =   164.1307

     17  C    Isotropic =    68.1561   Anisotropy =   167.3382

     18  C    Isotropic =    68.6849   Anisotropy =   163.8808

     19  C    Isotropic =    62.5763   Anisotropy =   174.0575

     20  H    Isotropic =    25.0248   Anisotropy =     3.6329

     21  H    Isotropic =    25.0488   Anisotropy =     6.0871

     22  H    Isotropic =    25.3996   Anisotropy =    12.2436

     23  H    Isotropic =    24.6144   Anisotropy =     9.2595

     24  H    Isotropic =    24.9317   Anisotropy =     4.5825

     25  H    Isotropic =    25.3950   Anisotropy =    12.2269

     26  H    Isotropic =    25.0463   Anisotropy =     6.0872

     27  H    Isotropic =    25.0190   Anisotropy =     3.6415

     28  H    Isotropic =    24.9263   Anisotropy =     4.5872

     29  H    Isotropic =    24.6110   Anisotropy =     9.2488

     30  H    Isotropic =    24.6114   Anisotropy =     9.2521

     31  H    Isotropic =    24.9257   Anisotropy =     4.5897

     32  H    Isotropic =    25.0206   Anisotropy =     3.6412

     33  H    Isotropic =    25.0485   Anisotropy =     6.0859

     34  H    Isotropic =    25.3991   Anisotropy =    12.2229

  Exact polarizability: 224.214   0.051 224.006   0.003   0.088 165.089
 Approx polarizability: 331.050   0.120 330.642   0.004   0.208 308.131

                      1                      2                      3
                      A                      A                      A
 Frequencies --     21.3532                22.7352                37.6730
 Red. masses --      3.7935                 3.7975                 3.6887
 Frc consts  --      0.0010                 0.0012                 0.0031
 IR Inten    --      0.2799                 0.2823                 0.0018

                      4                      5                      6
                      A                      A                      A
 Frequencies --     53.2081                53.2931                70.6146
 Red. masses --      5.2570                 5.2514                 5.1670
 Frc consts  --      0.0088                 0.0088                 0.0152
 IR Inten    --      0.0860                 0.0840                 0.3102

                      7                      8                      9
                      A                      A                      A
 Frequencies --    181.4782               202.2996               202.6669
 Red. masses --      4.5603                 4.6432                 4.6415
 Frc consts  --      0.0885                 0.1120                 0.1123
 IR Inten    --      0.3525                 1.1375                 1.1378

                     10                     11                     12
                      A                      A                      A
 Frequencies --    245.5859               259.7592               260.0572
 Red. masses --      5.7403                 4.7189                 4.7235
 Frc consts  --      0.2040                 0.1876                 0.1882
 IR Inten    --      0.4827                 0.2245                 0.2232

                     13                     14                     15
                      A                      A                      A
 Frequencies --    408.7336               408.8000               412.3536
 Red. masses --      3.0777                 3.0793                 3.5765
 Frc consts  --      0.3029                 0.3032                 0.3583
 IR Inten    --      1.9540                 1.9678                 0.1550

                     16                     17                     18
                      A                      A                      A
 Frequencies --    417.0895               429.3782               429.5468
 Red. masses --      4.6429                 7.3048                 7.3086
 Frc consts  --      0.4759                 0.7935                 0.7945
 IR Inten    --      0.5673                 7.6620                 7.7065

                     19                     20                     21
                      A                      A                      A
 Frequencies --    509.4424               509.5274               516.2986
 Red. masses --      4.2474                 4.2479                 4.5899
 Frc consts  --      0.6495                 0.6498                 0.7209
 IR Inten    --     26.1017                26.1832                11.9734

                     22                     23                     24
                      A                      A                      A
 Frequencies --    632.7148               632.7452               633.3643
 Red. masses --      6.4271                 6.4271                 6.4367
 Frc consts  --      1.5159                 1.5161                 1.5213
 IR Inten    --      0.1815                 0.1811                 0.0161

                     25                     26                     27
                      A                      A                      A
 Frequencies --    691.8930               705.1716               705.1824
 Red. masses --      6.5807                 5.7226                 5.6935
 Frc consts  --      1.8561                 1.6766                 1.6681
 IR Inten    --      0.7736                 1.1681                 1.2252

                     28                     29                     30
                      A                      A                      A
 Frequencies --    712.1876               712.2911               713.2393
 Red. masses --      2.2025                 2.2025                 2.1336
 Frc consts  --      0.6582                 0.6584                 0.6395
 IR Inten    --     26.3769                26.3388                16.5696

                     31                     32                     33
                      A                      A                      A
 Frequencies --    761.3815               762.8755               762.9149
 Red. masses --      1.6151                 1.6483                 1.6488
 Frc consts  --      0.5516                 0.5652                 0.5654
 IR Inten    --     19.1874                24.9066                24.9010

                     34                     35                     36
                      A                      A                      A
 Frequencies --    866.1109               866.2148               868.7154
 Red. masses --      1.2478                 1.2477                 1.2463
 Frc consts  --      0.5515                 0.5516                 0.5541
 IR Inten    --      0.2285                 0.2242                 0.1339

                     37                     38                     39
                      A                      A                      A
 Frequencies --    932.8762               932.9277               934.1971
 Red. masses --      1.3444                 1.3442                 1.3386
 Frc consts  --      0.6893                 0.6893                 0.6883
 IR Inten    --      1.2599                 1.2672                 0.0265

                     40                     41                     42
                      A                      A                      A
 Frequencies --    975.7324               975.8498               977.5975
 Red. masses --      1.3615                 1.3612                 1.3557
 Frc consts  --      0.7637                 0.7637                 0.7634
 IR Inten    --      0.0163                 0.0164                 0.1422

                     43                     44                     45
                      A                      A                      A
 Frequencies --   1000.3572              1000.3785              1001.0965
 Red. masses --      1.2545                 1.2542                 1.2526
 Frc consts  --      0.7396                 0.7395                 0.7396
 IR Inten    --      0.0773                 0.0791                 0.0001

                     46                     47                     48
                      A                      A                      A
 Frequencies --   1015.3718              1015.3785              1015.7564
 Red. masses --      6.3140                 6.3107                 6.3096
 Frc consts  --      3.8353                 3.8334                 3.8356
 IR Inten    --      4.3499                 4.3729                 0.0481

                     49                     50                     51
                      A                      A                      A
 Frequencies --   1052.6810              1052.7385              1052.9137
 Red. masses --      3.3085                 3.3146                 3.2532
 Frc consts  --      2.1601                 2.1643                 2.1249
 IR Inten    --      2.1030                 2.0907                 0.0465

                     52                     53                     54
                      A                      A                      A
 Frequencies --   1107.8445              1108.0877              1109.5274
 Red. masses --      1.8819                 1.8615                 1.6546
 Frc consts  --      1.3608                 1.3467                 1.2001
 IR Inten    --      4.2095                 3.8657                 2.8353

                     55                     56                     57
                      A                      A                      A
 Frequencies --   1110.7503              1110.8117              1116.2359
 Red. masses --      2.1966                 2.2175                 2.6137
 Frc consts  --      1.5967                 1.6121                 1.9187
 IR Inten    --      9.4820                 9.7425                 1.2669

                     58                     59                     60
                      A                      A                      A
 Frequencies --   1193.4738              1193.8668              1193.9282
 Red. masses --      1.1033                 1.0999                 1.1001
 Frc consts  --      0.9259                 0.9237                 0.9239
 IR Inten    --      0.0018                 0.1315                 0.1296

                     61                     62                     63
                      A                      A                      A
 Frequencies --   1219.1398              1219.4273              1220.9025
 Red. masses --      1.1475                 1.1477                 1.1473
 Frc consts  --      1.0048                 1.0056                 1.0076
 IR Inten    --      6.0288                 6.0772                 0.3675

                     64                     65                     66
                      A                      A                      A
 Frequencies --   1325.0074              1328.6412              1328.7963
 Red. masses --      3.4963                 3.4726                 3.5086
 Frc consts  --      3.6166                 3.6118                 3.6500
 IR Inten    --      2.6321                 2.4323                 2.4434

                     67                     68                     69
                      A                      A                      A
 Frequencies --   1365.0205              1365.2825              1365.6254
 Red. masses --      1.6615                 1.6516                 1.6412
 Frc consts  --      1.8240                 1.8139                 1.8034
 IR Inten    --      0.2625                 0.2257                 2.9066

                     70                     71                     72
                      A                      A                      A
 Frequencies --   1480.4936              1480.9520              1480.9837
 Red. masses --      2.1109                 2.1151                 2.1164
 Frc consts  --      2.7260                 2.7331                 2.7350
 IR Inten    --     16.6471                 6.5877                 6.6185

                     73                     74                     75
                      A                      A                      A
 Frequencies --   1531.0469              1531.4913              1531.5976
 Red. masses --      2.0151                 1.9990                 1.9980
 Frc consts  --      2.7831                 2.7625                 2.7614
 IR Inten    --      2.0129                10.1328                10.1549

                     76                     77                     78
                      A                      A                      A
 Frequencies --   1630.1532              1630.4286              1630.4337
 Red. masses --      5.1004                 5.1129                 5.1136
 Frc consts  --      7.9857                 8.0079                 8.0090
 IR Inten    --      0.3992                 0.0450                 0.0446

                     79                     80                     81
                      A                      A                      A
 Frequencies --   1646.1302              1646.1521              1647.9351
 Red. masses --      5.2724                 5.2707                 5.2832
 Frc consts  --      8.4175                 8.4151                 8.4533
 IR Inten    --      3.5206                 3.4983                 0.3202

                     82                     83                     84
                      A                      A                      A
 Frequencies --   3176.0631              3176.1280              3176.1562
 Red. masses --      1.0854                 1.0853                 1.0853
 Frc consts  --      6.4506                 6.4508                 6.4509
 IR Inten    --      2.1220                 2.0144                 1.8756

                     85                     86                     87
                      A                      A                      A
 Frequencies --   3182.6188              3182.6813              3182.7503
 Red. masses --      1.0875                 1.0875                 1.0876
 Frc consts  --      6.4901                 6.4904                 6.4911
 IR Inten    --      0.7150                 0.7572                 0.2258

                     88                     89                     90
                      A                      A                      A
 Frequencies --   3192.8273              3192.8717              3192.9866
 Red. masses --      1.0916                 1.0916                 1.0917
 Frc consts  --      6.5567                 6.5568                 6.5578
 IR Inten    --     11.4086                10.4436                46.3563

                     91                     92                     93
                      A                      A                      A
 Frequencies --   3203.9294              3203.9467              3204.3273
 Red. masses --      1.0941                 1.0941                 1.0942
 Frc consts  --      6.6174                 6.6174                 6.6197
 IR Inten    --     41.6739                41.7596                 4.3539

                     94                     95                     96
                      A                      A                      A
 Frequencies --   3210.1159              3210.1416              3211.0177
 Red. masses --      1.0956                 1.0956                 1.0956
 Frc consts  --      6.6520                 6.6520                 6.6555
 IR Inten    --     19.7589                19.7654                16.3049

 - Thermochemistry -
 -------------------
 Temperature   298.150 Kelvin.  Pressure   1.00000 Atm.
 Atom     1 has atomic number  6 and mass  12.00000

 Molecular mass:   262.09114 amu.
 Principal axes and moments of inertia in atomic units:
                           1         2         3
     Eigenvalues --  5161.487735164.588298680.10023
           X            0.99986   0.01689   0.00000
           Y           -0.01689   0.99986   0.00002
           Z           -0.00000  -0.00002   1.00000
 This molecule is an asymmetric top.
 Rotational symmetry number  1.
 Warning -- assumption of classical behavior for rotation
           may cause significant error
 Rotational temperatures (Kelvin)      0.01678     0.01677     0.00998
 Rotational constants (GHZ):           0.34966     0.34945     0.20792
 Zero-point vibrational energy     719933.5 (Joules/Mol)
                                  172.06823 (Kcal/Mol)
 Warning -- explicit consideration of  21 degrees of freedom as
           vibrations may cause significant error
 Vibrational temperatures:     30.72    32.71    54.20    76.55    76.68
          (Kelvin)            101.60   261.11   291.06   291.59   353.34
                              373.74   374.16   588.08   588.17   593.28
                              600.10   617.78   618.02   732.97   733.10
                              742.84   910.34   910.38   911.27   995.48
                             1014.58  1014.60  1024.68  1024.83  1026.19
                             1095.46  1097.61  1097.66  1246.14  1246.29
                             1249.89  1342.20  1342.27  1344.10  1403.86
                             1404.03  1406.54  1439.29  1439.32  1440.35
                             1460.89  1460.90  1461.45  1514.57  1514.66
                             1514.91  1593.94  1594.29  1596.36  1598.12
                             1598.21  1606.01  1717.14  1717.71  1717.80
                             1754.07  1754.48  1756.61  1906.39  1911.62
                             1911.84  1963.96  1964.34  1964.83  2130.10
                             2130.76  2130.81  2202.84  2203.47  2203.63
                             2345.43  2345.82  2345.83  2368.41  2368.45
                             2371.01  4569.65  4569.74  4569.78  4579.08
                             4579.17  4579.27  4593.77  4593.83  4594.00
                             4609.74  4609.76  4610.31  4618.64  4618.68
                             4619.94

 Zero-point correction=                           0.274208 (Hartree/Particle)
 Thermal correction to Energy=                    0.290137
 Thermal correction to Enthalpy=                  0.291082
 Thermal correction to Gibbs Free Energy=         0.227625
 Sum of electronic and zero-point Energies=          -1036.024022
 Sum of electronic and thermal Energies=             -1036.008093
 Sum of electronic and thermal Enthalpies=           -1036.007149
 Sum of electronic and thermal Free Energies=        -1036.070606

                     E (Thermal)             CV                S
                      KCal/Mol        Cal/Mol-Kelvin    Cal/Mol-Kelvin
 Total                  182.064             62.539            133.555
 Electronic               0.000              0.000              0.000
 Translational            0.889              2.981             42.590
 Rotational               0.889              2.981             33.803
 Vibrational            180.287             56.578             57.163
 Vibration     1          0.593              1.985              6.504
 Vibration     2          0.593              1.985              6.380
 Vibration     3          0.594              1.982              5.378
 Vibration     4          0.596              1.976              4.694
 Vibration     5          0.596              1.976              4.691
 Vibration     6          0.598              1.968              4.136
 Vibration     7          0.630              1.865              2.313
 Vibration     8          0.639              1.837              2.112
 Vibration     9          0.639              1.836              2.109
 Vibration    10          0.660              1.770              1.762
 Vibration    11          0.668              1.746              1.663
 Vibration    12          0.668              1.746              1.661
 Vibration    13          0.773              1.451              0.931
 Vibration    14          0.773              1.451              0.931
 Vibration    15          0.776              1.443              0.918
 Vibration    16          0.780              1.433              0.902
 Vibration    17          0.791              1.406              0.861
 Vibration    18          0.791              1.406              0.860
 Vibration    19          0.865              1.229              0.635
 Vibration    20          0.865              1.229              0.635
 Vibration    21          0.871              1.214              0.619

                           ! Non-Optimized Parameters !
 Normal termination of Gaussian 16 at Sun Aug 23 06:10:57 2020.
 Gaussian 16:  ES64L-G16RevA.03 25-Dec-2016

 ----------------------------------------------------------------------
 # TD(NStates=10, Root=1) B3LYP/6-31G* scf=qc volume pop=NPA density=cu
 rrent Geom=AllCheck Guess=Read
 ----------------------------------------------------------------------

 Structure from the checkpoint file:  "phosphine_1_conf163.chk"
 -------------------
 Title Card Required
 -------------------
 Charge =  0 Multiplicity = 1

                         Standard orientation:
 ---------------------------------------------------------------------
 Center     Atomic      Atomic             Coordinates (Angstroms)
 Number     Number       Type             X           Y           Z
 ---------------------------------------------------------------------
      1          6           0       -1.716760    3.921031    0.651004
      2          6           0       -0.633585    3.302265    1.277000
      3          6           0       -0.099574    2.121450    0.756257
      4          6           0       -0.639158    1.543483   -0.403011
      5          6           0       -1.720292    2.184746   -1.031234
      6          6           0       -2.261245    3.357562   -0.504974
      7         15           0        0.000332   -0.000189   -1.206648
      8          6           0        1.656746   -0.218360   -0.402660
      9          6           0        1.886056   -0.969505    0.760244
     10          6           0        3.175494   -1.097829    1.281274
     11          6           0        4.254205   -0.474634    0.651893
     12          6           0        4.039898    0.273493   -0.507660
     13          6           0        2.753831    0.391806   -1.034135
     14          6           0       -1.017004   -1.325322   -0.402418
     15          6           0       -1.036671   -2.580908   -1.033115
     16          6           0       -1.782441   -3.635218   -0.506437
     17          6           0       -2.538191   -3.446095    0.652560
     18          6           0       -2.538950   -2.199935    1.281187
     19          6           0       -1.782868   -1.147680    0.759932
     20          1           0       -2.130189    4.840407    1.057347
     21          1           0       -0.201716    3.737990    2.174548
     22          1           0        0.743481    1.650233    1.252550
     23          1           0       -2.137296    1.762690   -1.942886
     24          1           0       -3.100054    3.836952   -1.003080
     25          1           0        1.055352   -1.459687    1.258986
     26          1           0        3.335854   -1.685706    2.181632
     27          1           0        5.257001   -0.576624    1.058454
     28          1           0        4.875452    0.755878   -1.008338
     29          1           0        2.597797    0.959844   -1.948522
     30          1           0       -0.466158   -2.730388   -1.947055
     31          1           0       -1.782125   -4.600322   -1.006537
     32          1           0       -3.128107   -4.263337    1.059262
     33          1           0       -3.128775   -2.044343    2.181106
     34          1           0       -1.792458   -0.182843    1.258024
 ---------------------------------------------------------------------

 SCF Done:  E(RB3LYP) =  -1036.29823067     a.u. after    1 cycles

 Excitation energies and oscillator strengths:

 Excited State   1:      Singlet-A      4.5095 eV  274.94 nm  f=0.1274  <S**2>=0.000
      69 -> 70         0.69712
 This state for optimization and/or second-order correction.
 Total Energy, E(TD-HF/TD-DFT) =  -1036.13250818
 Copying the excited state density for this state as the 1-particle RhoCI density.

 Excited State   2:      Singlet-A      4.5117 eV  274.81 nm  f=0.1283  <S**2>=0.000
      69 -> 71         0.69709

 Excited State   3:      Singlet-A      4.7574 eV  260.62 nm  f=0.0022  <S**2>=0.000
      67 -> 70         0.12353
      68 -> 71        -0.12405
      69 -> 72         0.67463

 Excited State   4:      Singlet-A      5.0577 eV  245.14 nm  f=0.0002  <S**2>=0.000
      66 -> 70         0.16722
      67 -> 71         0.11911
      68 -> 70        -0.11915
      69 -> 74         0.62998

 Excited State   5:      Singlet-A      5.0586 eV  245.10 nm  f=0.0002  <S**2>=0.000
      66 -> 71         0.16785
      67 -> 70         0.11962
      68 -> 71         0.11957
      69 -> 75         0.62939

 Excited State   6:      Singlet-A      5.1511 eV  240.70 nm  f=0.0085  <S**2>=0.000
      69 -> 73         0.67911

 Excited State   7:      Singlet-A      5.4274 eV  228.44 nm  f=0.0147  <S**2>=0.000
      63 -> 72        -0.16612
      64 -> 74         0.14222
      65 -> 75        -0.14001
      67 -> 70         0.42391
      68 -> 71        -0.41744
      69 -> 72        -0.16525

 Excited State   8:      Singlet-A      5.5139 eV  224.86 nm  f=0.0005  <S**2>=0.000
      63 -> 74         0.14369
      64 -> 70         0.12599
      64 -> 72        -0.22082
      64 -> 75        -0.11121
      65 -> 71         0.12487
      65 -> 72         0.17638
      65 -> 74         0.11082
      66 -> 70        -0.22654
      67 -> 70        -0.15557
      67 -> 71        -0.21886
      68 -> 70         0.22407
      68 -> 71        -0.15909
      68 -> 72         0.16294
      69 -> 74         0.28673

 Excited State   9:      Singlet-A      5.5150 eV  224.81 nm  f=0.0004  <S**2>=0.000
      63 -> 75         0.14415
      64 -> 71        -0.12157
      64 -> 72         0.17667
      64 -> 74        -0.10952
      65 -> 70         0.12474
      65 -> 72         0.22092
      65 -> 75        -0.11152
      66 -> 71        -0.22522
      67 -> 70        -0.21716
      67 -> 71         0.15772
      67 -> 72         0.16369
      68 -> 70        -0.15920
      68 -> 71        -0.22697
      69 -> 75         0.28770

 Excited State  10:      Singlet-A      5.6181 eV  220.69 nm  f=0.0009  <S**2>=0.000
      67 -> 71         0.47655
      68 -> 70         0.48506

 The electronic state is 1-A.
 Alpha  occ. eigenvalues --  -77.08113 -10.19447 -10.19447 -10.19446 -10.19148
 Alpha  occ. eigenvalues --  -10.19147 -10.19144 -10.19118 -10.19117 -10.19115
 Alpha  occ. eigenvalues --  -10.19032 -10.19031 -10.19028 -10.19008 -10.19007
 Alpha  occ. eigenvalues --  -10.19005 -10.18963 -10.18962 -10.18959  -6.54843
 Alpha  occ. eigenvalues --   -4.71102  -4.71102  -4.70601  -0.85560  -0.84846
 Alpha  occ. eigenvalues --   -0.84844  -0.76669  -0.74366  -0.74365  -0.74329
 Alpha  occ. eigenvalues --   -0.73821  -0.73820  -0.64436  -0.60337  -0.60307
 Alpha  occ. eigenvalues --   -0.60306  -0.59207  -0.59206  -0.55448  -0.51436
 Alpha  occ. eigenvalues --   -0.51434  -0.49296  -0.45440  -0.45439  -0.44774
 Alpha  occ. eigenvalues --   -0.44344  -0.44344  -0.44068  -0.41946  -0.41869
 Alpha  occ. eigenvalues --   -0.41867  -0.40379  -0.40376  -0.36844  -0.36352
 Alpha  occ. eigenvalues --   -0.36349  -0.35898  -0.34252  -0.34251  -0.34224
 Alpha  occ. eigenvalues --   -0.31885  -0.31883  -0.26775  -0.25450  -0.25445
 Alpha  occ. eigenvalues --   -0.25243  -0.24704  -0.24703  -0.21145
 Alpha virt. eigenvalues --   -0.01882  -0.01877  -0.00830   0.00173   0.00426
 Alpha virt. eigenvalues --    0.00431   0.06879   0.06889   0.09492   0.11038
 Alpha virt. eigenvalues --    0.11040   0.13903   0.14528   0.14530   0.15165

 Mulliken charges:
               1
     1  C   -0.121953
     2  C   -0.120995
     3  C   -0.147474
     4  C   -0.084704
     5  C   -0.159609
     6  C   -0.117840
     7  P    0.450680
     8  C   -0.131614
     9  C   -0.168281
    10  C   -0.121693
    11  C   -0.164143
    12  C   -0.119867
    13  C   -0.175981
    14  C   -0.104837
    15  C   -0.156630
    16  C   -0.125372
    17  C   -0.150085
    18  C   -0.115349
    19  C   -0.169898
    20  H    0.146713
    21  H    0.147612
    22  H    0.179065
    23  H    0.148246
    24  H    0.143171
    25  H    0.137830
    26  H    0.119807
    27  H    0.110851
    28  H    0.115346
    29  H    0.114465
    30  H    0.131375
    31  H    0.126019
    32  H    0.122986
    33  H    0.128260
    34  H    0.133900
 Sum of Mulliken charges =   0.00000

 Dipole moment (field-independent basis, Debye):
    X=             -2.5184    Y=              2.7936    Z=             -0.1969  Tot=              3.7663
 Quadrupole moment (field-independent basis, Debye-Ang):
   XX=           -119.7321   YY=           -107.3395   ZZ=           -110.6600
   XY=             -3.2756   XZ=             -0.1425   YZ=              1.3518

 Summary of Natural Population Analysis:

                                       Natural Population
                Natural  -----------------------------------------------
    Atom  No    Charge         Core      Valence    Rydberg      Total
 -----------------------------------------------------------------------
      C    1   -0.19836      1.99909     4.18549    0.01378     6.19836
      C    2   -0.23186      1.99909     4.21866    0.01412     6.23186
      C    3   -0.20235      1.99900     4.18726    0.01609     6.20235
      C    4   -0.38280      1.99891     4.35868    0.02522     6.38280
      C    5   -0.20696      1.99902     4.19272    0.01522     6.20696
      C    6   -0.23322      1.99910     4.21995    0.01418     6.23322
      P    7    1.24222      9.99750     3.71003    0.05025    13.75778
      C    8   -0.48188      1.99887     4.45691    0.02610     6.48188
      C    9   -0.24661      1.99899     4.22982    0.01780     6.24661
      C   10   -0.23508      1.99909     4.22132    0.01467     6.23508
      C   11   -0.28789      1.99909     4.27233    0.01647     6.28789
      C   12   -0.23926      1.99910     4.22536    0.01480     6.23926
      C   13   -0.23925      1.99902     4.22388    0.01636     6.23925
      C   14   -0.43192      1.99887     4.40885    0.02419     6.43192
      C   15   -0.20806      1.99901     4.19340    0.01565     6.20806
      C   16   -0.24816      1.99910     4.23407    0.01499     6.24816
      C   17   -0.25833      1.99909     4.24364    0.01559     6.25833
      C   18   -0.22309      1.99909     4.20978    0.01423     6.22309
      C   19   -0.25400      1.99899     4.23752    0.01749     6.25400
      H   20    0.24230      0.00000     0.75688    0.00083     0.75770
      H   21    0.24603      0.00000     0.75311    0.00086     0.75397
      H   22    0.26311      0.00000     0.73566    0.00123     0.73689
      H   23    0.24151      0.00000     0.75732    0.00117     0.75849
      H   24    0.24318      0.00000     0.75592    0.00091     0.75682
      H   25    0.23989      0.00000     0.75853    0.00157     0.76011
      H   26    0.23318      0.00000     0.76594    0.00088     0.76682
      H   27    0.22681      0.00000     0.77229    0.00091     0.77319
      H   28    0.23014      0.00000     0.76892    0.00094     0.76986
      H   29    0.22376      0.00000     0.77529    0.00095     0.77624
      H   30    0.23390      0.00000     0.76491    0.00119     0.76610
      H   31    0.23576      0.00000     0.76337    0.00087     0.76424
      H   32    0.23216      0.00000     0.76696    0.00089     0.76784
      H   33    0.23696      0.00000     0.76216    0.00088     0.76304
      H   34    0.23818      0.00000     0.76049    0.00133     0.76182
 =======================================================================
   * Total *   -0.00000     45.98001    91.64740    0.37259   138.00000

 Normal termination of Gaussian 16 at Sun Aug 23 06:22:32 2020.
