 Gaussian 16, Revision A.03,

 ---------------------------------
 # opt=CalcAll B3LYP/6-31G* scf=qc
 ---------------------------------

 -------------------
 Title Card Required
 -------------------
 Symbolic Z-matrix:
 Charge =  0 Multiplicity = 1

 SCF Done:  E(RB3LYP) =  -2415.07410583     a.u. after    8 cycles
 SCF Done:  E(RB3LYP) =  -2415.08531385     a.u. after   17 cycles
 SCF Done:  E(RB3LYP) =  -2415.08616613     a.u. after   13 cycles
 SCF Done:  E(RB3LYP) =  -2415.08623622     a.u. after   13 cycles
 SCF Done:  E(RB3LYP) =  -2415.08624754     a.u. after    5 cycles
 SCF Done:  E(RB3LYP) =  -2415.08624489     a.u. after    5 cycles
 SCF Done:  E(RB3LYP) =  -2415.08624645     a.u. after    3 cycles
 SCF Done:  E(RB3LYP) =  -2415.08624702     a.u. after    4 cycles
 SCF Done:  E(RB3LYP) =  -2415.08624508     a.u. after    2 cycles
 SCF Done:  E(RB3LYP) =  -2415.08624404     a.u. after    3 cycles
 SCF Done:  E(RB3LYP) =  -2415.08624634     a.u. after    2 cycles
 SCF Done:  E(RB3LYP) =  -2415.08624164     a.u. after    4 cycles
 SCF Done:  E(RB3LYP) =  -2415.08624145     a.u. after    2 cycles
 Optimization completed.
    -- Stationary point found.
 Normal termination of Gaussian 16 at Sun Aug 23 00:38:04 2020.

 ----------------------------------------------------------------------
 # freq B3LYP/6-31G* scf=qc volume NMR pop=NPA density=current Geom=All
 Check Guess=Read
 ----------------------------------------------------------------------

 Structure from the checkpoint file:  "phosphine_11_conf112.chk"
 -------------------
 Title Card Required
 -------------------
 Charge =  0 Multiplicity = 1

 SCF Done:  E(RB3LYP) =  -2415.08624145     a.u. after    1 cycles

      1  C    Isotropic =    67.5453   Anisotropy =   140.1028

      2  C    Isotropic =    61.9461   Anisotropy =   168.5191

      3  C    Isotropic =    58.6814   Anisotropy =   177.4637

      4  C    Isotropic =    60.2872   Anisotropy =   160.3131

      5  C    Isotropic =    67.5549   Anisotropy =   140.5770

      6  C    Isotropic =    51.6336   Anisotropy =   109.0803

      7  Cl   Isotropic =   721.0501   Anisotropy =   452.9483

      8  P    Isotropic =   364.8888   Anisotropy =    38.0849

      9  C    Isotropic =    58.8263   Anisotropy =   177.4083

     10  C    Isotropic =    61.8668   Anisotropy =   168.7070

     11  C    Isotropic =    67.5336   Anisotropy =   140.1158

     12  C    Isotropic =    51.5850   Anisotropy =   109.1636

     13  C    Isotropic =    67.5510   Anisotropy =   140.6005

     14  C    Isotropic =    60.1939   Anisotropy =   160.2461

     15  Cl   Isotropic =   720.9561   Anisotropy =   452.8768

     16  C    Isotropic =    58.7470   Anisotropy =   177.5127

     17  C    Isotropic =    60.1870   Anisotropy =   160.1741

     18  C    Isotropic =    67.5426   Anisotropy =   140.6026

     19  C    Isotropic =    51.5688   Anisotropy =   109.2112

     20  C    Isotropic =    67.5433   Anisotropy =   140.1036

     21  C    Isotropic =    61.8338   Anisotropy =   168.6628

     22  Cl   Isotropic =   720.8344   Anisotropy =   453.0013

     23  H    Isotropic =    25.2096   Anisotropy =     8.1471

     24  H    Isotropic =    25.5895   Anisotropy =    12.1321

     25  H    Isotropic =    24.7847   Anisotropy =     8.9866

     26  H    Isotropic =    25.0953   Anisotropy =     6.6348

     27  H    Isotropic =    25.5766   Anisotropy =    12.1078

     28  H    Isotropic =    25.2075   Anisotropy =     8.1442

     29  H    Isotropic =    25.0894   Anisotropy =     6.6353

     30  H    Isotropic =    24.7763   Anisotropy =     8.9577

     31  H    Isotropic =    24.7736   Anisotropy =     8.9478

     32  H    Isotropic =    25.0916   Anisotropy =     6.6345

     33  H    Isotropic =    25.2071   Anisotropy =     8.1357

     34  H    Isotropic =    25.5725   Anisotropy =    12.0735

  Exact polarizability: 280.476  -0.245 280.471  -0.047   0.243 185.336
 Approx polarizability: 393.115  -0.593 393.202  -0.107   0.556 343.653

                      1                      2                      3
                      A                      A                      A
 Frequencies --     21.8178                22.1721                29.4050
 Red. masses --      4.7507                 4.6582                 9.0231
 Frc consts  --      0.0013                 0.0013                 0.0046
 IR Inten    --      0.2773                 0.2681                 0.1912

                      4                      5                      6
                      A                      A                      A
 Frequencies --     29.7063                38.0795                40.1872
 Red. masses --      8.5514                 6.8781                 5.0755
 Frc consts  --      0.0044                 0.0059                 0.0048
 IR Inten    --      0.1900                 0.1733                 0.0542

                      7                      8                      9
                      A                      A                      A
 Frequencies --    109.0538               117.5165               117.7909
 Red. masses --      8.8653                 8.8343                 8.8270
 Frc consts  --      0.0621                 0.0719                 0.0722
 IR Inten    --      0.0258                 0.3534                 0.3490

                     10                     11                     12
                      A                      A                      A
 Frequencies --    181.0820               187.0794               187.6804
 Red. masses --     10.0387                 8.7769                 8.7920
 Frc consts  --      0.1939                 0.1810                 0.1825
 IR Inten    --      0.3324                 0.5759                 0.5646

                     13                     14                     15
                      A                      A                      A
 Frequencies --    264.0487               293.5880               293.7234
 Red. masses --      8.9689                 8.4025                 8.4195
 Frc consts  --      0.3684                 0.4267                 0.4280
 IR Inten    --      0.2155                 0.9075                 0.9060

                     16                     17                     18
                      A                      A                      A
 Frequencies --    310.7710               328.7044               328.8435
 Red. masses --      6.0487                 5.9893                 5.9710
 Frc consts  --      0.3442                 0.3813                 0.3804
 IR Inten    --      0.0037                 1.8967                 1.8805

                     19                     20                     21
                      A                      A                      A
 Frequencies --    383.7838               384.1202               414.6314
 Red. masses --      8.0465                 8.0217                 3.0432
 Frc consts  --      0.6983                 0.6974                 0.3083
 IR Inten    --     20.9420                21.0013                 0.0499

                     22                     23                     24
                      A                      A                      A
 Frequencies --    414.7105               416.7525               427.0286
 Red. masses --      3.0443                 3.2034                 6.6414
 Frc consts  --      0.3085                 0.3278                 0.7135
 IR Inten    --      0.0697                 0.1581                 2.9611

                     25                     26                     27
                      A                      A                      A
 Frequencies --    499.5177               509.3240               509.4523
 Red. masses --      5.4978                 3.6426                 3.6465
 Frc consts  --      0.8082                 0.5567                 0.5576
 IR Inten    --      6.8536                19.8014                20.1474

                     28                     29                     30
                      A                      A                      A
 Frequencies --    531.5638               548.7459               548.8041
 Red. masses --      4.5852                 7.4466                 7.4241
 Frc consts  --      0.7633                 1.3211                 1.3174
 IR Inten    --      9.7768                 5.4735                 5.4788

                     31                     32                     33
                      A                      A                      A
 Frequencies --    644.3104               644.3805               645.3092
 Red. masses --      7.1590                 7.1598                 7.1686
 Frc consts  --      1.7510                 1.7516                 1.7588
 IR Inten    --      0.0375                 0.0376                 0.0982

                     34                     35                     36
                      A                      A                      A
 Frequencies --    718.2007               718.2501               718.6859
 Red. masses --      4.5854                 4.5853                 4.6033
 Frc consts  --      1.3935                 1.3937                 1.4009
 IR Inten    --      1.6594                 1.7210                 0.2937

                     37                     38                     39
                      A                      A                      A
 Frequencies --    746.1152               751.6088               751.6530
 Red. masses --      7.2613                 7.2745                 7.2731
 Frc consts  --      2.3816                 2.4212                 2.4210
 IR Inten    --     14.6355                54.3950                54.3922

                     40                     41                     42
                      A                      A                      A
 Frequencies --    833.6749               834.1506               834.2411
 Red. masses --      1.4169                 1.4318                 1.4324
 Frc consts  --      0.5802                 0.5870                 0.5874
 IR Inten    --     23.3486                32.6970                32.9662

                     43                     44                     45
                      A                      A                      A
 Frequencies --    845.8165               845.8957               848.9617
 Red. masses --      1.2467                 1.2467                 1.2500
 Frc consts  --      0.5255                 0.5256                 0.5308
 IR Inten    --      0.6557                 0.6323                 0.2925

                     46                     47                     48
                      A                      A                      A
 Frequencies --    969.4906               969.6076               969.9977
 Red. masses --      1.2765                 1.2759                 1.2872
 Frc consts  --      0.7069                 0.7067                 0.7136
 IR Inten    --      0.1572                 0.1584                 0.2172

                     49                     50                     51
                      A                      A                      A
 Frequencies --    973.2441               973.3418               976.6422
 Red. masses --      1.3458                 1.3463                 1.3225
 Frc consts  --      0.7510                 0.7515                 0.7432
 IR Inten    --      0.0121                 0.0105                 0.4213

                     52                     53                     54
                      A                      A                      A
 Frequencies --   1027.9504              1027.9852              1029.6403
 Red. masses --      4.7588                 4.7623                 4.7021
 Frc consts  --      2.9627                 2.9651                 2.9371
 IR Inten    --     62.5983                62.7820                 5.1106

                     55                     56                     57
                      A                      A                      A
 Frequencies --   1097.7504              1097.7774              1101.5185
 Red. masses --      7.9052                 7.9168                 8.0748
 Frc consts  --      5.6127                 5.6212                 5.7725
 IR Inten    --     81.3948                81.1284                13.6799

                     58                     59                     60
                      A                      A                      A
 Frequencies --   1118.1885              1118.3227              1121.2030
 Red. masses --      2.1223                 2.1220                 2.1015
 Frc consts  --      1.5634                 1.5636                 1.5565
 IR Inten    --     32.9543                32.9648                 6.4248

                     61                     62                     63
                      A                      A                      A
 Frequencies --   1139.1556              1139.3860              1139.6050
 Red. masses --      1.4013                 1.4015                 1.4021
 Frc consts  --      1.0714                 1.0720                 1.0728
 IR Inten    --      0.5964                 0.9762                 2.5520

                     64                     65                     66
                      A                      A                      A
 Frequencies --   1219.0062              1219.2862              1220.8476
 Red. masses --      1.1568                 1.1571                 1.1518
 Frc consts  --      1.0128                 1.0135                 1.0115
 IR Inten    --      4.8368                 4.8077                 0.9302

                     67                     68                     69
                      A                      A                      A
 Frequencies --   1318.3020              1322.2023              1322.3096
 Red. masses --      6.8919                 7.5311                 7.6241
 Frc consts  --      7.0569                 7.7572                 7.8542
 IR Inten    --      1.3283                 2.6469                 2.6919

                     70                     71                     72
                      A                      A                      A
 Frequencies --   1337.1664              1337.4056              1337.7635
 Red. masses --      1.3364                 1.3368                 1.3495
 Frc consts  --      1.4078                 1.4088                 1.4229
 IR Inten    --      0.3768                 0.5443                 1.3538

                     73                     74                     75
                      A                      A                      A
 Frequencies --   1429.5704              1429.8934              1430.0445
 Red. masses --      2.6352                 2.6436                 2.6418
 Frc consts  --      3.1730                 3.1845                 3.1831
 IR Inten    --     19.3900                 6.3167                 6.1774

                     76                     77                     78
                      A                      A                      A
 Frequencies --   1527.0456              1527.1568              1527.2423
 Red. masses --      2.0811                 2.0849                 2.0836
 Frc consts  --      2.8592                 2.8648                 2.8635
 IR Inten    --     55.6354                43.5231                42.7738

                     79                     80                     81
                      A                      A                      A
 Frequencies --   1611.0399              1611.2488              1611.3290
 Red. masses --      6.6430                 6.6628                 6.6592
 Frc consts  --     10.1584                10.1914                10.1869
 IR Inten    --      3.8320                 3.7624                 3.8963

                     82                     83                     84
                      A                      A                      A
 Frequencies --   1633.3985              1633.4635              1634.5012
 Red. masses --      5.4312                 5.4270                 5.4921
 Frc consts  --      8.5376                 8.5316                 8.6449
 IR Inten    --     29.9948                29.5923                13.1592

                     85                     86                     87
                      A                      A                      A
 Frequencies --   3187.9046              3188.1061              3188.3099
 Red. masses --      1.0892                 1.0892                 1.0892
 Frc consts  --      6.5220                 6.5228                 6.5235
 IR Inten    --      4.7719                 4.1306                 3.7562

                     88                     89                     90
                      A                      A                      A
 Frequencies --   3205.3140              3205.6791              3206.3338
 Red. masses --      1.0879                 1.0879                 1.0879
 Frc consts  --      6.5854                 6.5868                 6.5894
 IR Inten    --      0.8646                 0.8300                 0.6967

                     91                     92                     93
                      A                      A                      A
 Frequencies --   3222.5117              3222.5993              3222.7195
 Red. masses --      1.0937                 1.0938                 1.0937
 Frc consts  --      6.6919                 6.6924                 6.6925
 IR Inten    --      2.7118                 2.3641                 9.4779

                     94                     95                     96
                      A                      A                      A
 Frequencies --   3223.5867              3223.6732              3223.8950
 Red. masses --      1.0939                 1.0939                 1.0941
 Frc consts  --      6.6975                 6.6978                 6.6999
 IR Inten    --      5.5529                 5.6489                 0.2241

 - Thermochemistry -
 -------------------
 Temperature   298.150 Kelvin.  Pressure   1.00000 Atm.
 Atom     1 has atomic number  6 and mass  12.00000

 Molecular mass:   363.97422 amu.
 Principal axes and moments of inertia in atomic units:
                           1         2         3
     Eigenvalues --  ******************************
           X            0.99784  -0.06562  -0.00001
           Y            0.06562   0.99784   0.00005
           Z            0.00001  -0.00005   1.00000
 This molecule is an asymmetric top.
 Rotational symmetry number  1.
 Warning -- assumption of classical behavior for rotation
           may cause significant error
 Rotational temperatures (Kelvin)      0.00723     0.00723     0.00405
 Rotational constants (GHZ):           0.15067     0.15056     0.08442
 Zero-point vibrational energy     643726.1 (Joules/Mol)
                                  153.85423 (Kcal/Mol)
 Warning -- explicit consideration of  30 degrees of freedom as
           vibrations may cause significant error
 Vibrational temperatures:     31.39    31.90    42.31    42.74    54.79
          (Kelvin)             57.82   156.90   169.08   169.47   260.54
                              269.17   270.03   379.91   422.41   422.60
                              447.13   472.93   473.13   552.18   552.66
                              596.56   596.68   599.61   614.40   718.69
                              732.80   732.99   764.80   789.52   789.61
                              927.02   927.12   928.46  1033.33  1033.40
                             1034.03  1073.49  1081.40  1081.46  1199.47
                             1200.16  1200.29  1216.94  1217.06  1221.47
                             1394.88  1395.05  1395.61  1400.28  1400.42
                             1405.17  1478.99  1479.04  1481.42  1579.42
                             1579.46  1584.84  1608.82  1609.02  1613.16
                             1638.99  1639.32  1639.64  1753.88  1754.28
                             1756.53  1896.74  1902.35  1902.51  1923.88
                             1924.23  1924.74  2056.83  2057.30  2057.52
                             2197.08  2197.24  2197.36  2317.93  2318.23
                             2318.34  2350.10  2350.19  2351.68  4586.68
                             4586.97  4587.27  4611.73  4612.26  4613.20
                             4636.48  4636.60  4636.77  4638.02  4638.15
                             4638.47

 Zero-point correction=                           0.245182 (Hartree/Particle)
 Thermal correction to Energy=                    0.264837
 Thermal correction to Enthalpy=                  0.265781
 Thermal correction to Gibbs Free Energy=         0.192227
 Sum of electronic and zero-point Energies=          -2414.841059
 Sum of electronic and thermal Energies=             -2414.821405
 Sum of electronic and thermal Enthalpies=           -2414.820460
 Sum of electronic and thermal Free Energies=        -2414.894015

                     E (Thermal)             CV                S
                      KCal/Mol        Cal/Mol-Kelvin    Cal/Mol-Kelvin
 Total                  166.188             74.126            154.808
 Electronic               0.000              0.000              0.000
 Translational            0.889              2.981             43.569
 Rotational               0.889              2.981             36.372
 Vibrational            164.410             68.164             74.868
 Vibration     1          0.593              1.985              6.461
 Vibration     2          0.593              1.985              6.429
 Vibration     3          0.593              1.984              5.869
 Vibration     4          0.593              1.984              5.849
 Vibration     5          0.594              1.982              5.357
 Vibration     6          0.594              1.981              5.250
 Vibration     7          0.606              1.942              3.286
 Vibration     8          0.608              1.935              3.141
 Vibration     9          0.608              1.935              3.136
 Vibration    10          0.630              1.865              2.317
 Vibration    11          0.632              1.858              2.257
 Vibration    12          0.632              1.857              2.251
 Vibration    13          0.671              1.739              1.635
 Vibration    14          0.688              1.686              1.453
 Vibration    15          0.689              1.685              1.452
 Vibration    16          0.700              1.653              1.358
 Vibration    17          0.712              1.618              1.266
 Vibration    18          0.712              1.618              1.266
 Vibration    19          0.753              1.505              1.024
 Vibration    20          0.753              1.504              1.023
 Vibration    21          0.778              1.438              0.910
 Vibration    22          0.778              1.438              0.910
 Vibration    23          0.780              1.434              0.903
 Vibration    24          0.789              1.411              0.868
 Vibration    25          0.855              1.251              0.659
 Vibration    26          0.864              1.229              0.635
 Vibration    27          0.865              1.229              0.635
 Vibration    28          0.887              1.180              0.584
 Vibration    29          0.904              1.142              0.547
 Vibration    30          0.904              1.142              0.547

                           ! Non-Optimized Parameters !
 Normal termination of Gaussian 16 at Sun Aug 23 00:53:43 2020.
 Gaussian 16:  ES64L-G16RevA.03 25-Dec-2016

 ----------------------------------------------------------------------
 # TD(NStates=10, Root=1) B3LYP/6-31G* scf=qc volume pop=NPA density=cu
 rrent Geom=AllCheck Guess=Read
 ----------------------------------------------------------------------

 Structure from the checkpoint file:  "phosphine_11_conf113.chk"
 -------------------
 Title Card Required
 -------------------
 Charge =  0 Multiplicity = 1

                         Standard orientation:
 ---------------------------------------------------------------------
 Center     Atomic      Atomic             Coordinates (Angstroms)
 Number     Number       Type             X           Y           Z
 ---------------------------------------------------------------------
      1          6           0       -1.665419   -2.921112   -0.940657
      2          6           0       -0.783941   -1.975621   -0.414270
      3          6           0       -1.105647   -1.250311    0.742620
      4          6           0       -2.337371   -1.506908    1.367852
      5          6           0       -3.233843   -2.438938    0.848435
      6          6           0       -2.886383   -3.141159   -0.305440
      7         17           0       -4.002103   -4.329069   -0.963268
      8         15           0        0.000209   -0.000538    1.547842
      9          6           0        1.635732   -0.332543    0.742694
     10          6           0        2.097094    0.299607   -0.421601
     11          6           0        3.356739    0.010017   -0.948137
     12          6           0        4.164018   -0.927092   -0.305462
     13          6           0        3.735651   -1.569835    0.855782
     14          6           0        2.479865   -1.260545    1.375139
     15         17           0        5.750913   -1.297877   -0.963425
     16          6           0       -0.530139    1.581951    0.743136
     17          6           0       -0.153847    2.776914    1.378789
     18          6           0       -0.513093    4.019044    0.858670
     19          6           0       -1.277557    4.068558   -0.306745
     20          6           0       -1.680010    2.900866   -0.952902
     21          6           0       -1.301886    1.665315   -0.425494
     22         17           0       -1.748927    5.628114   -0.965669
     23          1           0       -1.408464   -3.480128   -1.834412
     24          1           0        0.165682   -1.809503   -0.913543
     25          1           0       -2.600972   -0.974380    2.278505
     26          1           0       -4.184298   -2.627742    1.336211
     27          1           0        1.473601    1.031073   -0.926478
     28          1           0        3.707874    0.504989   -1.847594
     29          1           0        4.379195   -2.290458    1.349222
     30          1           0        2.155041   -1.747511    2.291489
     31          1           0        0.425226    2.739049    2.298331
     32          1           0       -0.215058    4.936691    1.354684
     33          1           0       -2.279367    2.957437   -1.855615
     34          1           0       -1.619398    0.759440   -0.932744
 ---------------------------------------------------------------------

 SCF Done:  E(RB3LYP) =  -2415.08624145     a.u. after    1 cycles

 Excitation energies and oscillator strengths:

 Excited State   1:      Singlet-A      4.4031 eV  281.58 nm  f=0.1810  <S**2>=0.000
      93 -> 94         0.69576
 This state for optimization and/or second-order correction.
 Total Energy, E(TD-HF/TD-DFT) =  -2414.92443024
 Copying the excited state density for this state as the 1-particle RhoCI density.

 Excited State   2:      Singlet-A      4.4101 eV  281.13 nm  f=0.1853  <S**2>=0.000
      93 -> 95         0.69567

 Excited State   3:      Singlet-A      4.6138 eV  268.73 nm  f=0.0036  <S**2>=0.000
      89 -> 94         0.10900
      90 -> 95         0.11029
      93 -> 96         0.67960

 Excited State   4:      Singlet-A      4.9168 eV  252.17 nm  f=0.0001  <S**2>=0.000
      88 -> 94         0.11370
      89 -> 95        -0.10783
      90 -> 94        -0.10687
      93 -> 98         0.64553

 Excited State   5:      Singlet-A      4.9198 eV  252.01 nm  f=0.0001  <S**2>=0.000
      88 -> 95         0.11267
      89 -> 94        -0.10940
      90 -> 95         0.11070
      90 -> 97         0.10229
      93 -> 99         0.64351

 Excited State   6:      Singlet-A      5.0234 eV  246.81 nm  f=0.0089  <S**2>=0.000
      91 -> 94        -0.11613
      92 -> 95        -0.11743
      93 -> 97         0.66821

 Excited State   7:      Singlet-A      5.2586 eV  235.78 nm  f=0.0018  <S**2>=0.000
      89 -> 94        -0.13512
      90 -> 95        -0.12567
      91 -> 94        -0.24593
      91 -> 95        -0.36349
      91 -> 98        -0.12942
      92 -> 94         0.37863
      92 -> 95        -0.24276
      92 -> 99        -0.12249
      93 -> 96         0.10439

 Excited State   8:      Singlet-A      5.3602 eV  231.31 nm  f=0.0057  <S**2>=0.000
      87 -> 94        -0.10434
      88 -> 94         0.19262
      89 -> 95        -0.19206
      89 -> 97         0.11146
      90 -> 94        -0.19292
      91 -> 94         0.10250
      91 -> 95        -0.11013
      91 -> 96         0.38355
      91 -> 98         0.10480
      91 -> 99        -0.10874
      92 -> 94        -0.10112
      92 -> 95        -0.10807
      92 -> 96         0.21290
      92 -> 98        -0.11393
      92 -> 99        -0.10551
      93 -> 98        -0.22554

 Excited State   9:      Singlet-A      5.3631 eV  231.18 nm  f=0.0052  <S**2>=0.000
      87 -> 95        -0.10086
      88 -> 95         0.18580
      89 -> 94        -0.19355
      90 -> 95         0.19013
      90 -> 97         0.11131
      91 -> 94        -0.11207
      91 -> 96        -0.20773
      91 -> 98        -0.11193
      92 -> 94        -0.10657
      92 -> 95         0.11875
      92 -> 96         0.39110
      92 -> 98        -0.10538
      92 -> 99         0.11003
      93 -> 99        -0.22829

 Excited State  10:      Singlet-A      5.4199 eV  228.76 nm  f=0.1592  <S**2>=0.000
      91 -> 94         0.26897
      91 -> 95         0.38057
      92 -> 94         0.38352
      92 -> 95        -0.25700
      92 -> 96         0.13566

 The electronic state is 1-A.
 Alpha  occ. eigenvalues -- -101.55496-101.55494-101.55486 -77.10091 -10.26335
 Alpha  occ. eigenvalues --  -10.26331 -10.26319 -10.21418 -10.21418 -10.21413
 Alpha  occ. eigenvalues --  -10.21369 -10.21368 -10.21361 -10.21351 -10.21348
 Alpha  occ. eigenvalues --  -10.21339 -10.21315 -10.21314 -10.21306 -10.21253
 Alpha  occ. eigenvalues --  -10.21249 -10.21240  -9.47128  -9.47126  -9.47118
 Alpha  occ. eigenvalues --   -7.23523  -7.23521  -7.23513  -7.22559  -7.22556
 Alpha  occ. eigenvalues --   -7.22548  -7.22521  -7.22519  -7.22511  -6.56806
 Alpha  occ. eigenvalues --   -4.73067  -4.73067  -4.72562  -0.89964  -0.89795
 Alpha  occ. eigenvalues --   -0.89787  -0.85153  -0.84240  -0.84233  -0.76899
 Alpha  occ. eigenvalues --   -0.76781  -0.76777  -0.76742  -0.73908  -0.73903
 Alpha  occ. eigenvalues --   -0.65057  -0.63154  -0.62986  -0.62983  -0.60497
 Alpha  occ. eigenvalues --   -0.60494  -0.57615  -0.52433  -0.52428  -0.49748
 Alpha  occ. eigenvalues --   -0.48090  -0.47998  -0.47996  -0.47166  -0.47165
 Alpha  occ. eigenvalues --   -0.46322  -0.44341  -0.44247  -0.44243  -0.42728
 Alpha  occ. eigenvalues --   -0.42722  -0.40318  -0.40241  -0.40234  -0.39581
 Alpha  occ. eigenvalues --   -0.37220  -0.37217  -0.37130  -0.35197  -0.35184
 Alpha  occ. eigenvalues --   -0.34131  -0.33464  -0.33452  -0.31869  -0.31865
 Alpha  occ. eigenvalues --   -0.31857  -0.27678  -0.27409  -0.27148  -0.27138
 Alpha  occ. eigenvalues --   -0.25837  -0.25821  -0.22682
 Alpha virt. eigenvalues --   -0.03968  -0.03949  -0.03029  -0.01962  -0.01796
 Alpha virt. eigenvalues --   -0.01779   0.02240   0.02247   0.02402   0.05581
 Alpha virt. eigenvalues --    0.05612   0.10344   0.12147   0.12343   0.12349

 Mulliken charges:
               1
     1  C   -0.116045
     2  C   -0.148885
     3  C   -0.078369
     4  C   -0.155521
     5  C   -0.115846
     6  C   -0.063236
     7  Cl   0.017241
     8  P    0.446526
     9  C   -0.123834
    10  C   -0.161523
    11  C   -0.122190
    12  C   -0.093215
    13  C   -0.117521
    14  C   -0.174648
    15  Cl  -0.031479
    16  C   -0.113123
    17  C   -0.158945
    18  C   -0.126437
    19  C   -0.094499
    20  C   -0.113997
    21  C   -0.174119
    22  Cl  -0.035023
    23  H    0.174597
    24  H    0.183184
    25  H    0.162800
    26  H    0.171044
    27  H    0.156553
    28  H    0.153468
    29  H    0.149047
    30  H    0.132587
    31  H    0.137334
    32  H    0.149023
    33  H    0.151017
    34  H    0.134034
 Sum of Mulliken charges =   0.00000

 Dipole moment (field-independent basis, Debye):
    X=             -2.6564    Y=             -3.3134    Z=              1.9771  Tot=              4.6844
 Quadrupole moment (field-independent basis, Debye-Ang):
   XX=           -167.8241   YY=           -167.3116   ZZ=           -145.0019
   XY=              9.0027   XZ=             -0.1053   YZ=              1.0893

 Summary of Natural Population Analysis:

                                       Natural Population
                Natural  -----------------------------------------------
    Atom  No    Charge         Core      Valence    Rydberg      Total
 -----------------------------------------------------------------------
      C    1   -0.23986      1.99892     4.22571    0.01522     6.23986
      C    2   -0.19565      1.99900     4.18067    0.01598     6.19565
      C    3   -0.37495      1.99891     4.35128    0.02476     6.37495
      C    4   -0.19002      1.99902     4.17591    0.01509     6.19002
      C    5   -0.24596      1.99893     4.23164    0.01539     6.24596
      C    6   -0.01450      1.99855     3.99368    0.02227     6.01450
     Cl    7    0.02932      9.99967     6.95175    0.01927    16.97068
      P    8    1.21228      9.99758     3.74029    0.04985    13.78772
      C    9   -0.46691      1.99888     4.44188    0.02615     6.46691
      C   10   -0.22160      1.99899     4.20545    0.01716     6.22160
      C   11   -0.25078      1.99893     4.23583    0.01601     6.25078
      C   12   -0.07608      1.99854     4.05528    0.02226     6.07608
      C   13   -0.24912      1.99894     4.23431    0.01587     6.24912
      C   14   -0.22522      1.99901     4.21010    0.01610     6.22522
     Cl   15   -0.00724      9.99967     6.98728    0.02029    17.00724
      C   16   -0.45297      1.99887     4.42980    0.02430     6.45297
      C   17   -0.20111      1.99901     4.18638    0.01572     6.20111
      C   18   -0.26552      1.99894     4.24995    0.01663     6.26552
      C   19   -0.07903      1.99854     4.05828    0.02221     6.07903
      C   20   -0.23618      1.99893     4.22174    0.01552     6.23618
      C   21   -0.25257      1.99899     4.23598    0.01759     6.25257
     Cl   22   -0.01017      9.99967     6.99020    0.02030    17.01017
      H   23    0.26375      0.00000     0.73521    0.00105     0.73625
      H   24    0.26616      0.00000     0.73266    0.00118     0.73384
      H   25    0.25082      0.00000     0.74800    0.00119     0.74918
      H   26    0.26164      0.00000     0.73731    0.00105     0.73836
      H   27    0.25087      0.00000     0.74761    0.00152     0.74913
      H   28    0.25402      0.00000     0.74492    0.00105     0.74598
      H   29    0.25105      0.00000     0.74786    0.00109     0.74895
      H   30    0.23429      0.00000     0.76478    0.00093     0.76571
      H   31    0.23809      0.00000     0.76084    0.00107     0.76191
      H   32    0.25180      0.00000     0.74717    0.00103     0.74820
      H   33    0.25260      0.00000     0.74635    0.00105     0.74740
      H   34    0.23872      0.00000     0.75993    0.00135     0.76128
 =======================================================================
   * Total *   -0.00000     75.97648   109.56604    0.45748   186.00000

 Normal termination of Gaussian 16 at Sun Aug 23 01:11:35 2020.
