 Gaussian 16, Revision A.03,

 ---------------------------------
 # opt=CalcAll B3LYP/6-31G* scf=qc
 ---------------------------------

 -------------------
 Title Card Required
 -------------------
 Symbolic Z-matrix:
 Charge =  0 Multiplicity = 1

 SCF Done:  E(RB3LYP) =  -814.896311418     a.u. after    7 cycles
 SCF Done:  E(RB3LYP) =  -814.909458270     a.u. after   15 cycles
 SCF Done:  E(RB3LYP) =  -814.911218716     a.u. after   11 cycles
 SCF Done:  E(RB3LYP) =  -814.911664511     a.u. after   11 cycles
 SCF Done:  E(RB3LYP) =  -814.911702418     a.u. after    7 cycles
 SCF Done:  E(RB3LYP) =  -814.911709383     a.u. after    7 cycles
 SCF Done:  E(RB3LYP) =  -814.911709555     a.u. after    2 cycles
 SCF Done:  E(RB3LYP) =  -814.911709506     a.u. after    2 cycles
 Optimization completed.
    -- Stationary point found.
 Normal termination of Gaussian 16 at Sun Aug 23 09:28:17 2020.

 ----------------------------------------------------------------------
 # freq B3LYP/6-31G* scf=qc volume NMR pop=NPA density=current Geom=All
 Check Guess=Read
 ----------------------------------------------------------------------

 Structure from the checkpoint file:  "phosphine_2_conf292.chk"
 -------------------
 Title Card Required
 -------------------
 Charge =  0 Multiplicity = 1

 SCF Done:  E(RB3LYP) =  -814.911709506     a.u. after    1 cycles

      1  C    Isotropic =   173.5584   Anisotropy =    24.8188

      2  C    Isotropic =   164.7007   Anisotropy =    15.9931

      3  C    Isotropic =   160.5445   Anisotropy =    25.6258

      4  C    Isotropic =   162.0271   Anisotropy =    26.2540

      5  H    Isotropic =    30.8084   Anisotropy =     6.0746

      6  H    Isotropic =    30.3313   Anisotropy =     5.1805

      7  P    Isotropic =   400.2294   Anisotropy =    46.3602

      8  C    Isotropic =   161.9001   Anisotropy =    16.7158

      9  H    Isotropic =    30.8215   Anisotropy =     4.6085

     10  H    Isotropic =    30.6331   Anisotropy =     7.2183

     11  C    Isotropic =   160.5543   Anisotropy =    20.2355

     12  C    Isotropic =   163.9057   Anisotropy =    16.9252

     13  C    Isotropic =   176.0697   Anisotropy =    18.8156

     14  C    Isotropic =   162.1458   Anisotropy =    29.5186

     15  H    Isotropic =    30.5965   Anisotropy =     6.1446

     16  H    Isotropic =    30.8804   Anisotropy =     6.8675

     17  C    Isotropic =   164.1404   Anisotropy =    21.3452

     18  C    Isotropic =   162.2198   Anisotropy =    23.0257

     19  C    Isotropic =   173.7561   Anisotropy =    24.0893

     20  H    Isotropic =    31.0679   Anisotropy =    10.2460

     21  H    Isotropic =    31.3061   Anisotropy =     8.4475

     22  H    Isotropic =    31.3374   Anisotropy =     7.7080

     23  H    Isotropic =    30.9140   Anisotropy =     6.4999

     24  H    Isotropic =    30.1554   Anisotropy =     5.6518

     25  H    Isotropic =    30.6657   Anisotropy =     4.4438

     26  H    Isotropic =    30.5264   Anisotropy =     7.6437

     27  H    Isotropic =    30.6855   Anisotropy =     6.0865

     28  H    Isotropic =    30.6893   Anisotropy =     6.2978

     29  H    Isotropic =    30.7987   Anisotropy =     6.6321

     30  H    Isotropic =    30.4707   Anisotropy =     9.1527

     31  H    Isotropic =    30.9524   Anisotropy =     6.0044

     32  H    Isotropic =    31.1557   Anisotropy =    10.2940

     33  H    Isotropic =    31.4445   Anisotropy =     8.3804

     34  H    Isotropic =    30.6615   Anisotropy =     5.6985

     35  H    Isotropic =    30.8221   Anisotropy =     6.0316

     36  H    Isotropic =    30.7739   Anisotropy =     6.3534

     37  H    Isotropic =    30.7795   Anisotropy =     6.1745

     38  H    Isotropic =    31.2321   Anisotropy =     7.6912

     39  H    Isotropic =    31.0242   Anisotropy =    10.5244

     40  H    Isotropic =    31.2230   Anisotropy =     7.5804

  Exact polarizability: 172.631   0.579 160.729   0.781  -2.631 128.625
 Approx polarizability: 213.589   2.273 208.591   1.716  -6.631 200.056

                      1                      2                      3
                      A                      A                      A
 Frequencies --     17.3452                32.1386                41.1034
 Red. masses --      3.3678                 2.6046                 2.5483
 Frc consts  --      0.0006                 0.0016                 0.0025
 IR Inten    --      0.0178                 0.0009                 0.0096

                      4                      5                      6
                      A                      A                      A
 Frequencies --     49.4157                60.4916                70.3145
 Red. masses --      1.8938                 2.4394                 1.7001
 Frc consts  --      0.0027                 0.0053                 0.0050
 IR Inten    --      0.0056                 0.0249                 0.0332

                      7                      8                      9
                      A                      A                      A
 Frequencies --     85.7653               111.1636               124.9947
 Red. masses --      2.8284                 2.7102                 2.3320
 Frc consts  --      0.0123                 0.0197                 0.0215
 IR Inten    --      0.0420                 0.4002                 0.0437

                     10                     11                     12
                      A                      A                      A
 Frequencies --    128.1802               160.9112               182.9423
 Red. masses --      2.4072                 2.3451                 1.9565
 Frc consts  --      0.0233                 0.0358                 0.0386
 IR Inten    --      0.0864                 0.3154                 0.0199

                     13                     14                     15
                      A                      A                      A
 Frequencies --    208.2906               235.7940               245.7087
 Red. masses --      1.9607                 1.8847                 1.2167
 Frc consts  --      0.0501                 0.0617                 0.0433
 IR Inten    --      0.0237                 0.2131                 0.0251

                     16                     17                     18
                      A                      A                      A
 Frequencies --    249.3263               258.8310               280.8114
 Red. masses --      1.2410                 2.2787                 1.9500
 Frc consts  --      0.0455                 0.0899                 0.0906
 IR Inten    --      0.0094                 0.2887                 0.1896

                     19                     20                     21
                      A                      A                      A
 Frequencies --    287.3695               320.4059               368.3281
 Red. masses --      2.0428                 2.5898                 3.9080
 Frc consts  --      0.0994                 0.1566                 0.3124
 IR Inten    --      0.1736                 0.5030                 0.7229

                     22                     23                     24
                      A                      A                      A
 Frequencies --    418.4929               432.6204               485.6558
 Red. masses --      2.9946                 2.4616                 2.8547
 Frc consts  --      0.3090                 0.2715                 0.3967
 IR Inten    --      0.2025                 1.6133                 1.0245

                     25                     26                     27
                      A                      A                      A
 Frequencies --    623.6761               688.4475               708.2344
 Red. masses --      3.0797                 1.7379                 2.9256
 Frc consts  --      0.7058                 0.4853                 0.8646
 IR Inten    --      3.5135                 0.6430                 4.1191

                     28                     29                     30
                      A                      A                      A
 Frequencies --    723.5122               749.0109               762.0044
 Red. masses --      1.3217                 1.2442                 1.2719
 Frc consts  --      0.4076                 0.4113                 0.4351
 IR Inten    --     18.3970                 3.6992                 0.5740

                     31                     32                     33
                      A                      A                      A
 Frequencies --    774.5190               787.9389               805.8663
 Red. masses --      1.4869                 1.3284                 1.6175
 Frc consts  --      0.5255                 0.4859                 0.6189
 IR Inten    --      5.1532                 4.5341                 3.4563

                     34                     35                     36
                      A                      A                      A
 Frequencies --    872.5574               888.1746               900.0313
 Red. masses --      2.2178                 1.4359                 1.5307
 Frc consts  --      0.9949                 0.6674                 0.7306
 IR Inten    --      0.2846                 0.8430                 3.9029

                     37                     38                     39
                      A                      A                      A
 Frequencies --    909.1213               922.2814               932.6936
 Red. masses --      1.6344                 1.3332                 1.4348
 Frc consts  --      0.7959                 0.6682                 0.7354
 IR Inten    --      2.0589                 8.9400                 8.7656

                     40                     41                     42
                      A                      A                      A
 Frequencies --    984.7989              1013.0495              1021.5699
 Red. masses --      1.9932                 2.7979                 3.6037
 Frc consts  --      1.1389                 1.6918                 2.2158
 IR Inten    --      2.9301                 2.4228                 3.2002

                     43                     44                     45
                      A                      A                      A
 Frequencies --   1060.3644              1062.3642              1066.8846
 Red. masses --      1.2602                 2.2281                 1.6862
 Frc consts  --      0.8348                 1.4816                 1.1308
 IR Inten    --      0.5563                 1.0821                 0.6976

                     46                     47                     48
                      A                      A                      A
 Frequencies --   1069.9763              1083.8398              1089.4564
 Red. masses --      1.6792                 1.8226                 1.3740
 Frc consts  --      1.1327                 1.2615                 0.9608
 IR Inten    --      0.2547                 3.5600                 6.2472

                     49                     50                     51
                      A                      A                      A
 Frequencies --   1116.3347              1119.1199              1125.4186
 Red. masses --      1.7770                 1.6927                 1.9116
 Frc consts  --      1.3048                 1.2491                 1.4265
 IR Inten    --      0.2377                 5.4409                11.2131

                     52                     53                     54
                      A                      A                      A
 Frequencies --   1221.4357              1231.3515              1249.6029
 Red. masses --      1.4953                 1.4568                 1.4019
 Frc consts  --      1.3143                 1.3014                 1.2897
 IR Inten    --      4.0909                 1.4949                 4.6186

                     55                     56                     57
                      A                      A                      A
 Frequencies --   1251.5104              1258.1589              1264.2063
 Red. masses --      1.4396                 1.3656                 1.3687
 Frc consts  --      1.3285                 1.2737                 1.2888
 IR Inten    --      0.8165                 1.3717                 0.1296

                     58                     59                     60
                      A                      A                      A
 Frequencies --   1315.8938              1320.1948              1325.9617
 Red. masses --      1.2281                 1.2395                 1.1905
 Frc consts  --      1.2529                 1.2728                 1.2332
 IR Inten    --      1.2300                 1.5845                 1.6479

                     61                     62                     63
                      A                      A                      A
 Frequencies --   1338.1835              1344.1795              1348.9348
 Red. masses --      1.1504                 1.2671                 1.0822
 Frc consts  --      1.2138                 1.3488                 1.1602
 IR Inten    --      2.6814                 9.5715                 0.2151

                     64                     65                     66
                      A                      A                      A
 Frequencies --   1351.8964              1352.8334              1393.8113
 Red. masses --      1.1048                 1.3377                 1.4397
 Frc consts  --      1.1897                 1.4425                 1.6479
 IR Inten    --      0.2173                 2.7781                 1.2553

                     67                     68                     69
                      A                      A                      A
 Frequencies --   1399.4723              1408.3889              1417.8449
 Red. masses --      1.3230                 1.4939                 1.5296
 Frc consts  --      1.5266                 1.7459                 1.8117
 IR Inten    --     10.1921                 2.7478                 3.3771

                     70                     71                     72
                      A                      A                      A
 Frequencies --   1440.4182              1440.8055              1442.6431
 Red. masses --      1.2420                 1.2418                 1.2618
 Frc consts  --      1.5182                 1.5188                 1.5472
 IR Inten    --      1.6531                 0.9737                 6.5320

                     73                     74                     75
                      A                      A                      A
 Frequencies --   1489.4224              1493.3070              1497.7531
 Red. masses --      1.0851                 1.0854                 1.0869
 Frc consts  --      1.4182                 1.4261                 1.4365
 IR Inten    --      3.5961                 0.7594                 9.8923

                     76                     77                     78
                      A                      A                      A
 Frequencies --   1515.2373              1516.9102              1518.7863
 Red. masses --      1.0691                 1.0707                 1.0646
 Frc consts  --      1.4462                 1.4515                 1.4469
 IR Inten    --      0.4100                 1.5113                 0.6980

                     79                     80                     81
                      A                      A                      A
 Frequencies --   1520.3125              1525.4577              1527.0962
 Red. masses --      1.0806                 1.0686                 1.0690
 Frc consts  --      1.4715                 1.4651                 1.4688
 IR Inten    --      1.3397                 0.1808                 1.3560

                     82                     83                     84
                      A                      A                      A
 Frequencies --   1529.7465              1529.9823              1532.3611
 Red. masses --      1.0411                 1.0412                 1.0534
 Frc consts  --      1.4354                 1.4359                 1.4574
 IR Inten    --      6.0935                 5.9720                 4.3991

                     85                     86                     87
                      A                      A                      A
 Frequencies --   1538.4263              1540.1014              1541.5525
 Red. masses --      1.0610                 1.0821                 1.0842
 Frc consts  --      1.4795                 1.5122                 1.5180
 IR Inten    --      5.1007                 2.9480                 3.6687

                     88                     89                     90
                      A                      A                      A
 Frequencies --   3015.4671              3021.6916              3023.5625
 Red. masses --      1.0595                 1.0595                 1.0593
 Frc consts  --      5.6763                 5.6995                 5.7055
 IR Inten    --     19.0451                 5.8326                16.3590

                     91                     92                     93
                      A                      A                      A
 Frequencies --   3025.1489              3027.0754              3029.3211
 Red. masses --      1.0611                 1.0623                 1.0698
 Frc consts  --      5.7213                 5.7353                 5.7839
 IR Inten    --     26.3365                 4.0144                16.0875

                     94                     95                     96
                      A                      A                      A
 Frequencies --   3030.3746              3032.0379              3036.9382
 Red. masses --      1.0624                 1.0629                 1.0568
 Frc consts  --      5.7483                 5.7574                 5.7427
 IR Inten    --     32.7243                 5.2100                30.6183

                     97                     98                     99
                      A                      A                      A
 Frequencies --   3039.5312              3041.6409              3043.8788
 Red. masses --      1.0370                 1.0411                 1.0379
 Frc consts  --      5.6447                 5.6749                 5.6659
 IR Inten    --     42.1609                49.8460                23.4030

                    100                    101                    102
                      A                      A                      A
 Frequencies --   3046.7548              3048.8122              3057.0066
 Red. masses --      1.0910                 1.0969                 1.0975
 Frc consts  --      5.9669                 6.0073                 6.0431
 IR Inten    --     34.9845                10.7316                15.9294

                    103                    104                    105
                      A                      A                      A
 Frequencies --   3059.8048              3062.1524              3072.7641
 Red. masses --      1.1017                 1.1012                 1.1004
 Frc consts  --      6.0773                 6.0836                 6.1214
 IR Inten    --      6.1812                16.7491                19.0270

                    106                    107                    108
                      A                      A                      A
 Frequencies --   3076.1760              3082.3667              3083.8481
 Red. masses --      1.1022                 1.1038                 1.1042
 Frc consts  --      6.1454                 6.1787                 6.1873
 IR Inten    --     34.8224                74.4318                21.6851

                    109                    110                    111
                      A                      A                      A
 Frequencies --   3104.6957              3106.1423              3107.9455
 Red. masses --      1.1029                 1.1029                 1.1017
 Frc consts  --      6.2634                 6.2696                 6.2701
 IR Inten    --     70.6146                65.9215                45.4682

                    112                    113                    114
                      A                      A                      A
 Frequencies --   3110.5267              3110.6030              3114.2769
 Red. masses --      1.1015                 1.1018                 1.1018
 Frc consts  --      6.2791                 6.2811                 6.2959
 IR Inten    --     50.0416                36.9174                54.3099

 - Thermochemistry -
 -------------------
 Temperature   298.150 Kelvin.  Pressure   1.00000 Atm.
 Atom     1 has atomic number  6 and mass  12.00000

 Molecular mass:   202.18504 amu.
 Principal axes and moments of inertia in atomic units:
                           1         2         3
     Eigenvalues --  3675.963904782.339247803.49253
           X            0.99995  -0.00958   0.00048
           Y            0.00958   0.99995   0.00017
           Z           -0.00048  -0.00016   1.00000
 This molecule is an asymmetric top.
 Rotational symmetry number  1.
 Warning -- assumption of classical behavior for rotation
           may cause significant error
 Rotational temperatures (Kelvin)      0.02356     0.01811     0.01110
 Rotational constants (GHZ):           0.49096     0.37738     0.23127
 Zero-point vibrational energy     976525.8 (Joules/Mol)
                                  233.39528 (Kcal/Mol)
 Warning -- explicit consideration of  24 degrees of freedom as
           vibrations may cause significant error
 Vibrational temperatures:     24.96    46.24    59.14    71.10    87.03
          (Kelvin)            101.17   123.40   159.94   179.84   184.42
                              231.52   263.21   299.68   339.26   353.52
                              358.72   372.40   404.02   413.46   460.99
                              529.94   602.12   622.44   698.75   897.33
                              990.52  1018.99  1040.97  1077.66  1096.35
                             1114.36  1133.67  1159.46  1255.42  1277.89
                             1294.94  1308.02  1326.96  1341.94  1416.91
                             1457.55  1469.81  1525.63  1528.51  1535.01
                             1539.46  1559.40  1567.48  1606.16  1610.16
                             1619.23  1757.37  1771.64  1797.90  1800.64
                             1810.21  1818.91  1893.28  1899.47  1907.76
                             1925.35  1933.97  1940.82  1945.08  1946.43
                             2005.38  2013.53  2026.36  2039.96  2072.44
                             2073.00  2075.64  2142.95  2148.54  2154.93
                             2180.09  2182.50  2185.19  2187.39  2194.79
                             2197.15  2200.96  2201.30  2204.73  2213.45
                             2215.86  2217.95  4338.58  4347.54  4350.23
                             4352.51  4355.29  4358.52  4360.03  4362.43
                             4369.48  4373.21  4376.24  4379.46  4383.60
                             4386.56  4398.35  4402.38  4405.75  4421.02
                             4425.93  4434.84  4436.97  4466.96  4469.05
                             4471.64  4475.35  4475.46  4480.75

 Zero-point correction=                           0.371939 (Hartree/Particle)
 Thermal correction to Energy=                    0.390683
 Thermal correction to Enthalpy=                  0.391627
 Thermal correction to Gibbs Free Energy=         0.322304
 Sum of electronic and zero-point Energies=           -814.539770
 Sum of electronic and thermal Energies=              -814.521026
 Sum of electronic and thermal Enthalpies=            -814.520082
 Sum of electronic and thermal Free Energies=         -814.589405

                     E (Thermal)             CV                S
                      KCal/Mol        Cal/Mol-Kelvin    Cal/Mol-Kelvin
 Total                  245.157             66.362            145.902
 Electronic               0.000              0.000              0.000
 Translational            0.889              2.981             41.817
 Rotational               0.889              2.981             33.283
 Vibrational            243.380             60.400             70.802
 Vibration     1          0.593              1.986              6.917
 Vibration     2          0.594              1.983              5.693
 Vibration     3          0.594              1.981              5.205
 Vibration     4          0.595              1.978              4.841
 Vibration     5          0.597              1.973              4.441
 Vibration     6          0.598              1.968              4.145
 Vibration     7          0.601              1.959              3.754
 Vibration     8          0.607              1.940              3.248
 Vibration     9          0.610              1.928              3.022
 Vibration    10          0.611              1.925              2.973
 Vibration    11          0.622              1.890              2.539
 Vibration    12          0.630              1.863              2.298
 Vibration    13          0.642              1.828              2.059
 Vibration    14          0.655              1.786              1.834
 Vibration    15          0.660              1.770              1.761
 Vibration    16          0.662              1.764              1.735
 Vibration    17          0.668              1.748              1.670
 Vibration    18          0.680              1.709              1.529
 Vibration    19          0.685              1.697              1.489
 Vibration    20          0.706              1.634              1.308
 Vibration    21          0.741              1.537              1.087
 Vibration    22          0.781              1.430              0.897
 Vibration    23          0.794              1.399              0.850
 Vibration    24          0.842              1.282              0.695

 Optimization completed.
    -- Stationary point found.
 Normal termination of Gaussian 16 at Sun Aug 23 09:35:24 2020.
 Gaussian 16:  ES64L-G16RevA.03 25-Dec-2016

 ----------------------------------------------------------------------
 # TD(NStates=10, Root=1) B3LYP/6-31G* scf=qc volume pop=NPA density=cu
 rrent Geom=AllCheck Guess=Read
 ----------------------------------------------------------------------

 Structure from the checkpoint file:  "phosphine_2_conf293.chk"
 -------------------
 Title Card Required
 -------------------
 Charge =  0 Multiplicity = 1

                         Standard orientation:
 ---------------------------------------------------------------------
 Center     Atomic      Atomic             Coordinates (Angstroms)
 Number     Number       Type             X           Y           Z
 ---------------------------------------------------------------------
      1          6           0        4.367278   -2.535183   -0.153781
      2          6           0        2.846266   -2.370002   -0.074901
      3          6           0        2.421732   -1.141288    0.741591
      4          6           0        0.899067   -0.954218    0.874455
      5          1           0        0.454045   -1.885663    1.250291
      6          1           0        0.681408   -0.182881    1.624698
      7         15           0        0.009215   -0.555706   -0.736015
      8          6           0       -1.733175   -0.307312   -0.078036
      9          1           0       -1.721918    0.258171    0.864350
     10          1           0       -2.255485    0.315950   -0.815540
     11          6           0       -2.488852   -1.632583    0.117338
     12          6           0       -3.916555   -1.469744    0.669102
     13          6           0       -4.883030   -0.744181   -0.274188
     14          6           0        0.535894    1.225299   -1.043932
     15          1           0        1.583757    1.180705   -1.372026
     16          1           0       -0.029875    1.543692   -1.931158
     17          6           0        0.386349    2.274591    0.067194
     18          6           0        0.846342    3.673654   -0.371535
     19          6           0        0.702240    4.728309    0.730588
     20          1           0        4.643185   -3.423276   -0.733689
     21          1           0        4.809304   -2.639054    0.845187
     22          1           0        4.836590   -1.666915   -0.633079
     23          1           0        2.402290   -3.268955    0.376524
     24          1           0        2.428448   -2.302467   -1.087194
     25          1           0        2.872073   -0.239518    0.301475
     26          1           0        2.850678   -1.223174    1.751179
     27          1           0       -1.923573   -2.275595    0.805801
     28          1           0       -2.527236   -2.172144   -0.839093
     29          1           0       -3.874412   -0.937983    1.630581
     30          1           0       -4.318507   -2.467663    0.891380
     31          1           0       -4.570786    0.288756   -0.465224
     32          1           0       -5.893052   -0.707482    0.149845
     33          1           0       -4.947070   -1.255998   -1.242685
     34          1           0        0.965542    1.972689    0.950346
     35          1           0       -0.661358    2.330365    0.392188
     36          1           0        0.269045    3.983745   -1.254131
     37          1           0        1.895109    3.623801   -0.697176
     38          1           0       -0.341953    4.825318    1.052747
     39          1           0        1.037369    5.713889    0.387657
     40          1           0        1.296823    4.463217    1.613602
 ---------------------------------------------------------------------

 SCF Done:  E(RB3LYP) =  -814.911709506     a.u. after    1 cycles

 Excitation energies and oscillator strengths:

 Excited State   1:      Singlet-A      6.4622 eV  191.86 nm  f=0.1178  <S**2>=0.000
      57 -> 58         0.69470
 This state for optimization and/or second-order correction.
 Total Energy, E(TD-HF/TD-DFT) =  -814.674229644
 Copying the excited state density for this state as the 1-particle RhoCI density.

 Excited State   2:      Singlet-A      6.7860 eV  182.71 nm  f=0.1210  <S**2>=0.000
      57 -> 59         0.69247

 Excited State   3:      Singlet-A      6.9953 eV  177.24 nm  f=0.0138  <S**2>=0.000
      57 -> 60         0.69921

 Excited State   4:      Singlet-A      7.5753 eV  163.67 nm  f=0.0059  <S**2>=0.000
      57 -> 61         0.66618
      57 -> 63         0.17077

 Excited State   5:      Singlet-A      7.7845 eV  159.27 nm  f=0.0156  <S**2>=0.000
      57 -> 62         0.64370
      57 -> 63         0.18658
      57 -> 65         0.14184

 Excited State   6:      Singlet-A      7.9414 eV  156.12 nm  f=0.0215  <S**2>=0.000
      57 -> 61        -0.17502
      57 -> 62        -0.15511
      57 -> 63         0.63284
      57 -> 65        -0.16188

 Excited State   7:      Singlet-A      7.9948 eV  155.08 nm  f=0.0024  <S**2>=0.000
      57 -> 62         0.15048
      57 -> 64         0.59446
      57 -> 65        -0.30083

 Excited State   8:      Singlet-A      8.1310 eV  152.48 nm  f=0.0398  <S**2>=0.000
      57 -> 61         0.10498
      57 -> 62        -0.12509
      57 -> 63         0.10493
      57 -> 64         0.29595
      57 -> 65         0.56000
      57 -> 66        -0.20216

 Excited State   9:      Singlet-A      8.3090 eV  149.22 nm  f=0.0060  <S**2>=0.000
      57 -> 64         0.17615
      57 -> 65         0.16256
      57 -> 66         0.64587

 Excited State  10:      Singlet-A      8.3701 eV  148.13 nm  f=0.0091  <S**2>=0.000
      55 -> 58         0.56381
      56 -> 58         0.27149
      56 -> 59        -0.28841

 The electronic state is 1-A.
 Alpha  occ. eigenvalues --  -77.06262 -10.18088 -10.18058 -10.18029 -10.18008
 Alpha  occ. eigenvalues --  -10.17953 -10.17946 -10.17923 -10.17868 -10.17362
 Alpha  occ. eigenvalues --  -10.17326 -10.17129 -10.16921  -6.53040  -4.69301
 Alpha  occ. eigenvalues --   -4.69287  -4.68784  -0.79967  -0.78919  -0.78701
 Alpha  occ. eigenvalues --   -0.74153  -0.71545  -0.71337  -0.65493  -0.62857
 Alpha  occ. eigenvalues --   -0.62446  -0.58069  -0.57563  -0.56576  -0.51480
 Alpha  occ. eigenvalues --   -0.47221  -0.45738  -0.45636  -0.43853  -0.43226
 Alpha  occ. eigenvalues --   -0.42154  -0.41733  -0.41625  -0.41326  -0.39430
 Alpha  occ. eigenvalues --   -0.38846  -0.38218  -0.36709  -0.36270  -0.35490
 Alpha  occ. eigenvalues --   -0.35003  -0.34405  -0.33626  -0.33069  -0.32656
 Alpha  occ. eigenvalues --   -0.32593  -0.32425  -0.32183  -0.31685  -0.29042
 Alpha  occ. eigenvalues --   -0.28770  -0.21032
 Alpha virt. eigenvalues --    0.05643   0.06749   0.07816   0.09685   0.10633
 Alpha virt. eigenvalues --    0.10945   0.11321   0.11714   0.12214   0.13558
 Alpha virt. eigenvalues --    0.14192   0.14684   0.14857   0.15555   0.16233

 Mulliken charges:
               1
     1  C   -0.436348
     2  C   -0.222496
     3  C   -0.204381
     4  C   -0.435987
     5  H    0.173292
     6  H    0.184846
     7  P    0.338617
     8  C   -0.418470
     9  H    0.147694
    10  H    0.137970
    11  C   -0.229122
    12  C   -0.241997
    13  C   -0.431095
    14  C   -0.396268
    15  H    0.150675
    16  H    0.145537
    17  C   -0.262129
    18  C   -0.245728
    19  C   -0.444879
    20  H    0.135036
    21  H    0.135512
    22  H    0.133268
    23  H    0.108537
    24  H    0.110179
    25  H    0.094157
    26  H    0.093090
    27  H    0.117770
    28  H    0.120976
    29  H    0.121897
    30  H    0.123792
    31  H    0.129084
    32  H    0.133667
    33  H    0.136062
    34  H    0.136077
    35  H    0.145047
    36  H    0.136154
    37  H    0.139001
    38  H    0.145146
    39  H    0.149670
    40  H    0.146147
 Sum of Mulliken charges =  -0.00000

 Dipole moment (field-independent basis, Debye):
    X=             -0.6351    Y=              1.6558    Z=              0.5443  Tot=              1.8551
 Quadrupole moment (field-independent basis, Debye-Ang):
   XX=           -103.6204   YY=            -94.1539   ZZ=            -95.2432
   XY=              2.1597   XZ=              0.7561   YZ=             -0.8547

 Summary of Natural Population Analysis:

                                       Natural Population
                Natural  -----------------------------------------------
    Atom  No    Charge         Core      Valence    Rydberg      Total
 -----------------------------------------------------------------------
      C    1   -0.67351      1.99946     4.66602    0.00802     6.67351
      C    2   -0.45927      1.99935     4.44818    0.01174     6.45927
      C    3   -0.46743      1.99932     4.45298    0.01513     6.46743
      C    4   -0.75972      1.99930     4.74120    0.01923     6.75972
      H    5    0.25316      0.00000     0.74430    0.00254     0.74684
      H    6    0.27059      0.00000     0.72707    0.00234     0.72941
      P    7    1.04047      9.99767     3.84963    0.11224    13.95953
      C    8   -0.85851      1.99932     4.83326    0.02593     6.85851
      H    9    0.24336      0.00000     0.75128    0.00536     0.75664
      H   10    0.23505      0.00000     0.76003    0.00492     0.76495
      C   11   -0.46081      1.99933     4.44916    0.01233     6.46081
      C   12   -0.45290      1.99935     4.44236    0.01119     6.45290
      C   13   -0.67789      1.99946     4.67053    0.00790     6.67789
      C   14   -0.80413      1.99931     4.78757    0.01725     6.80413
      H   15    0.25258      0.00000     0.73588    0.01154     0.74742
      H   16    0.24088      0.00000     0.75515    0.00397     0.75912
      C   17   -0.45350      1.99929     4.44186    0.01235     6.45350
      C   18   -0.44989      1.99934     4.43949    0.01106     6.44989
      C   19   -0.67430      1.99946     4.66723    0.00761     6.67430
      H   20    0.22729      0.00000     0.77097    0.00174     0.77271
      H   21    0.22157      0.00000     0.77604    0.00239     0.77843
      H   22    0.21856      0.00000     0.77721    0.00424     0.78144
      H   23    0.21344      0.00000     0.78062    0.00594     0.78656
      H   24    0.20683      0.00000     0.78072    0.01245     0.79317
      H   25    0.20208      0.00000     0.78198    0.01594     0.79792
      H   26    0.20985      0.00000     0.77787    0.01228     0.79015
      H   27    0.22143      0.00000     0.77413    0.00444     0.77857
      H   28    0.22071      0.00000     0.77273    0.00655     0.77929
      H   29    0.22194      0.00000     0.77439    0.00368     0.77806
      H   30    0.22706      0.00000     0.76928    0.00367     0.77294
      H   31    0.21469      0.00000     0.78028    0.00503     0.78531
      H   32    0.22599      0.00000     0.77160    0.00241     0.77401
      H   33    0.22111      0.00000     0.77649    0.00240     0.77889
      H   34    0.22146      0.00000     0.77385    0.00469     0.77854
      H   35    0.23106      0.00000     0.76674    0.00220     0.76894
      H   36    0.23005      0.00000     0.76756    0.00239     0.76995
      H   37    0.23089      0.00000     0.76666    0.00245     0.76911
      H   38    0.22613      0.00000     0.77279    0.00108     0.77387
      H   39    0.23697      0.00000     0.76219    0.00084     0.76303
      H   40    0.22664      0.00000     0.77226    0.00110     0.77336
 =======================================================================
   * Total *    0.00000     33.98994    79.60953    0.40053   114.00000

 Normal termination of Gaussian 16 at Sun Aug 23 09:43:56 2020.
