 Gaussian 16, Revision A.03,

 ---------------------------------
 # opt=CalcAll B3LYP/6-31G* scf=qc
 ---------------------------------

 -------------------
 Title Card Required
 -------------------
 Symbolic Z-matrix:
 Charge =  0 Multiplicity = 1

 SCF Done:  E(RB3LYP) =  -1036.26773748     a.u. after    8 cycles
 SCF Done:  E(RB3LYP) =  -1036.27810439     a.u. after   15 cycles
 SCF Done:  E(RB3LYP) =  -1036.28144329     a.u. after   17 cycles
 SCF Done:  E(RB3LYP) =  -1036.27986784     a.u. after   17 cycles
 SCF Done:  E(RB3LYP) =  -1036.29403733     a.u. after   11 cycles
 SCF Done:  E(RB3LYP) =  -1036.29726537     a.u. after   17 cycles
 SCF Done:  E(RB3LYP) =  -1036.29819147     a.u. after   15 cycles
 SCF Done:  E(RB3LYP) =  -1036.29823152     a.u. after    9 cycles
 SCF Done:  E(RB3LYP) =  -1036.29823891     a.u. after    3 cycles
 SCF Done:  E(RB3LYP) =  -1036.29823727     a.u. after    2 cycles
 SCF Done:  E(RB3LYP) =  -1036.29823150     a.u. after    3 cycles
 SCF Done:  E(RB3LYP) =  -1036.29823211     a.u. after    2 cycles
 SCF Done:  E(RB3LYP) =  -1036.29823792     a.u. after    2 cycles
 SCF Done:  E(RB3LYP) =  -1036.29823509     a.u. after    2 cycles
 SCF Done:  E(RB3LYP) =  -1036.29823682     a.u. after    2 cycles
 SCF Done:  E(RB3LYP) =  -1036.29823460     a.u. after    2 cycles
 SCF Done:  E(RB3LYP) =  -1036.29822923     a.u. after    2 cycles
 Optimization completed.
    -- Stationary point found.
 Normal termination of Gaussian 16 at Sun Aug 23 06:31:50 2020.

 ----------------------------------------------------------------------
 # freq B3LYP/6-31G* scf=qc volume NMR pop=NPA density=current Geom=All
 Check Guess=Read
 ----------------------------------------------------------------------

 Structure from the checkpoint file:  "phosphine_1_conf262.chk"
 -------------------
 Title Card Required
 -------------------
 Charge =  0 Multiplicity = 1

 SCF Done:  E(RB3LYP) =  -1036.29822923     a.u. after    1 cycles

      1  C    Isotropic =    68.1643   Anisotropy =   167.3111

      2  C    Isotropic =    68.7281   Anisotropy =   164.1215

      3  C    Isotropic =    61.0273   Anisotropy =   164.1634

      4  C    Isotropic =    56.1302   Anisotropy =   179.4149

      5  C    Isotropic =    62.6128   Anisotropy =   174.0588

      6  C    Isotropic =    68.6799   Anisotropy =   163.8924

      7  P    Isotropic =   361.5204   Anisotropy =    39.6891

      8  C    Isotropic =    56.0792   Anisotropy =   179.4419

      9  C    Isotropic =    62.5850   Anisotropy =   174.0118

     10  C    Isotropic =    68.6759   Anisotropy =   163.8846

     11  C    Isotropic =    68.1710   Anisotropy =   167.3300

     12  C    Isotropic =    68.7252   Anisotropy =   164.1350

     13  C    Isotropic =    61.0159   Anisotropy =   164.1273

     14  C    Isotropic =    56.1560   Anisotropy =   179.4658

     15  C    Isotropic =    60.9954   Anisotropy =   164.1296

     16  C    Isotropic =    68.7297   Anisotropy =   164.0947

     17  C    Isotropic =    68.1524   Anisotropy =   167.3129

     18  C    Isotropic =    68.6785   Anisotropy =   163.9031

     19  C    Isotropic =    62.5681   Anisotropy =   174.1343

     20  H    Isotropic =    25.0216   Anisotropy =     3.6394

     21  H    Isotropic =    24.9266   Anisotropy =     4.5887

     22  H    Isotropic =    24.6133   Anisotropy =     9.2595

     23  H    Isotropic =    25.4016   Anisotropy =    12.2372

     24  H    Isotropic =    25.0484   Anisotropy =     6.0869

     25  H    Isotropic =    25.4019   Anisotropy =    12.2324

     26  H    Isotropic =    25.0481   Anisotropy =     6.0874

     27  H    Isotropic =    25.0206   Anisotropy =     3.6398

     28  H    Isotropic =    24.9268   Anisotropy =     4.5907

     29  H    Isotropic =    24.6137   Anisotropy =     9.2575

     30  H    Isotropic =    24.6094   Anisotropy =     9.2465

     31  H    Isotropic =    24.9303   Anisotropy =     4.5797

     32  H    Isotropic =    25.0229   Anisotropy =     3.6345

     33  H    Isotropic =    25.0468   Anisotropy =     6.0860

     34  H    Isotropic =    25.3925   Anisotropy =    12.2282

  Exact polarizability: 224.249  -0.073 224.049   0.089   0.035 165.025
 Approx polarizability: 331.111  -0.169 330.734   0.211   0.079 307.993

                      1                      2                      3
                      A                      A                      A
 Frequencies --     20.9605                22.0384                37.5458
 Red. masses --      3.7944                 3.7938                 3.6887
 Frc consts  --      0.0010                 0.0011                 0.0031
 IR Inten    --      0.2834                 0.2810                 0.0019

                      4                      5                      6
                      A                      A                      A
 Frequencies --     53.1006                53.2684                70.5379
 Red. masses --      5.2540                 5.2572                 5.1677
 Frc consts  --      0.0087                 0.0088                 0.0151
 IR Inten    --      0.0807                 0.0863                 0.3101

                      7                      8                      9
                      A                      A                      A
 Frequencies --    181.5387               202.3844               202.5013
 Red. masses --      4.5606                 4.6412                 4.6402
 Frc consts  --      0.0886                 0.1120                 0.1121
 IR Inten    --      0.3520                 1.1339                 1.1381

                     10                     11                     12
                      A                      A                      A
 Frequencies --    245.5494               259.7577               259.9883
 Red. masses --      5.7398                 4.7207                 4.7220
 Frc consts  --      0.2039                 0.1877                 0.1881
 IR Inten    --      0.4838                 0.2234                 0.2233

                     13                     14                     15
                      A                      A                      A
 Frequencies --    408.6771               408.7710               412.3138
 Red. masses --      3.0775                 3.0782                 3.6043
 Frc consts  --      0.3028                 0.3030                 0.3610
 IR Inten    --      1.9515                 1.9672                 0.1622

                     16                     17                     18
                      A                      A                      A
 Frequencies --    416.9744               429.3646               429.5712
 Red. masses --      4.5965                 7.3059                 7.3206
 Frc consts  --      0.4709                 0.7936                 0.7959
 IR Inten    --      0.5595                 7.6600                 7.7347

                     19                     20                     21
                      A                      A                      A
 Frequencies --    509.3531               509.5801               516.3176
 Red. masses --      4.2475                 4.2461                 4.5895
 Frc consts  --      0.6493                 0.6496                 0.7209
 IR Inten    --     26.0993                26.1141                11.9738

                     22                     23                     24
                      A                      A                      A
 Frequencies --    632.7291               632.7306               633.3531
 Red. masses --      6.4270                 6.4273                 6.4368
 Frc consts  --      1.5160                 1.5160                 1.5213
 IR Inten    --      0.1800                 0.1816                 0.0159

                     25                     26                     27
                      A                      A                      A
 Frequencies --    691.8513               705.1051               705.1651
 Red. masses --      6.5802                 5.6869                 5.7147
 Frc consts  --      1.8557                 1.6659                 1.6743
 IR Inten    --      0.7748                 1.1984                 1.2027

                     28                     29                     30
                      A                      A                      A
 Frequencies --    712.1861               712.2768               713.2189
 Red. masses --      2.2065                 2.1973                 2.1338
 Frc consts  --      0.6594                 0.6568                 0.6395
 IR Inten    --     26.3475                26.3541                16.5729

                     31                     32                     33
                      A                      A                      A
 Frequencies --    761.3675               762.8370               762.8858
 Red. masses --      1.6151                 1.6503                 1.6486
 Frc consts  --      0.5516                 0.5658                 0.5653
 IR Inten    --     19.2343                24.9015                24.8779

                     34                     35                     36
                      A                      A                      A
 Frequencies --    866.0882               866.1959               868.7188
 Red. masses --      1.2478                 1.2478                 1.2463
 Frc consts  --      0.5515                 0.5516                 0.5541
 IR Inten    --      0.2245                 0.2287                 0.1335

                     37                     38                     39
                      A                      A                      A
 Frequencies --    932.7295               932.9123               934.1817
 Red. masses --      1.3444                 1.3443                 1.3386
 Frc consts  --      0.6891                 0.6893                 0.6883
 IR Inten    --      1.2628                 1.2565                 0.0340

                     40                     41                     42
                      A                      A                      A
 Frequencies --    975.7030               975.8384               977.5950
 Red. masses --      1.3614                 1.3613                 1.3557
 Frc consts  --      0.7636                 0.7638                 0.7633
 IR Inten    --      0.0160                 0.0174                 0.1404

                     43                     44                     45
                      A                      A                      A
 Frequencies --   1000.3066              1000.3724              1001.0901
 Red. masses --      1.2544                 1.2544                 1.2527
 Frc consts  --      0.7395                 0.7396                 0.7397
 IR Inten    --      0.0751                 0.0794                 0.0003

                     46                     47                     48
                      A                      A                      A
 Frequencies --   1015.3665              1015.3698              1015.7420
 Red. masses --      6.3128                 6.3111                 6.3070
 Frc consts  --      3.8346                 3.8336                 3.8339
 IR Inten    --      4.3501                 4.3662                 0.0440

                     49                     50                     51
                      A                      A                      A
 Frequencies --   1052.6794              1052.7209              1052.9036
 Red. masses --      3.3060                 3.3135                 3.2511
 Frc consts  --      2.1585                 2.1635                 2.1235
 IR Inten    --      2.1213                 2.0994                 0.0375

                     52                     53                     54
                      A                      A                      A
 Frequencies --   1107.6459              1108.0056              1109.4796
 Red. masses --      1.8949                 1.8822                 1.6543
 Frc consts  --      1.3697                 1.3614                 1.1998
 IR Inten    --      4.4519                 4.2063                 2.8999

                     55                     56                     57
                      A                      A                      A
 Frequencies --   1110.7082              1110.7808              1116.0917
 Red. masses --      2.1753                 2.1911                 2.6145
 Frc consts  --      1.5811                 1.5929                 1.9189
 IR Inten    --      9.2677                 9.3667                 1.2272

                     58                     59                     60
                      A                      A                      A
 Frequencies --   1193.4662              1193.8529              1193.9192
 Red. masses --      1.1033                 1.1000                 1.1000
 Frc consts  --      0.9259                 0.9237                 0.9239
 IR Inten    --      0.0016                 0.1338                 0.1292

                     61                     62                     63
                      A                      A                      A
 Frequencies --   1218.9972              1219.3466              1220.7959
 Red. masses --      1.1474                 1.1477                 1.1472
 Frc consts  --      1.0046                 1.0054                 1.0074
 IR Inten    --      6.0594                 6.0554                 0.3304

                     64                     65                     66
                      A                      A                      A
 Frequencies --   1324.9689              1328.5468              1328.7810
 Red. masses --      3.4882                 3.4555                 3.4963
 Frc consts  --      3.6080                 3.5935                 3.6372
 IR Inten    --      2.6377                 2.4295                 2.4488

                     67                     68                     69
                      A                      A                      A
 Frequencies --   1364.8740              1365.1945              1365.5156
 Red. masses --      1.6648                 1.6544                 1.6453
 Frc consts  --      1.8272                 1.8167                 1.8075
 IR Inten    --      0.1324                 0.3992                 2.8507

                     70                     71                     72
                      A                      A                      A
 Frequencies --   1480.4842              1480.9190              1480.9983
 Red. masses --      2.1108                 2.1155                 2.1158
 Frc consts  --      2.7259                 2.7335                 2.7342
 IR Inten    --     16.6576                 6.5922                 6.5953

                     73                     74                     75
                      A                      A                      A
 Frequencies --   1531.0061              1531.4228              1531.5644
 Red. masses --      2.0155                 1.9998                 1.9982
 Frc consts  --      2.7835                 2.7634                 2.7616
 IR Inten    --      2.0024                10.1508                10.1486

                     76                     77                     78
                      A                      A                      A
 Frequencies --   1630.1437              1630.3927              1630.4540
 Red. masses --      5.1012                 5.1154                 5.1133
 Frc consts  --      7.9868                 8.0115                 8.0088
 IR Inten    --      0.3984                 0.0434                 0.0455

                     79                     80                     81
                      A                      A                      A
 Frequencies --   1646.1214              1646.1537              1647.9334
 Red. masses --      5.2736                 5.2711                 5.2835
 Frc consts  --      8.4194                 8.4157                 8.4539
 IR Inten    --      3.4874                 3.5341                 0.3202

                     82                     83                     84
                      A                      A                      A
 Frequencies --   3176.0763              3176.1088              3176.1466
 Red. masses --      1.0854                 1.0853                 1.0853
 Frc consts  --      6.4507                 6.4507                 6.4508
 IR Inten    --      2.1607                 1.9518                 1.8761

                     85                     86                     87
                      A                      A                      A
 Frequencies --   3182.6510              3182.6718              3182.7354
 Red. masses --      1.0875                 1.0875                 1.0876
 Frc consts  --      6.4901                 6.4903                 6.4911
 IR Inten    --      0.7793                 0.7960                 0.1233

                     88                     89                     90
                      A                      A                      A
 Frequencies --   3192.8351              3192.8637              3192.9791
 Red. masses --      1.0916                 1.0916                 1.0917
 Frc consts  --      6.5567                 6.5568                 6.5578
 IR Inten    --     10.7208                10.1787                47.3681

                     91                     92                     93
                      A                      A                      A
 Frequencies --   3203.9161              3203.9568              3204.3201
 Red. masses --      1.0941                 1.0942                 1.0943
 Frc consts  --      6.6173                 6.6178                 6.6198
 IR Inten    --     41.6152                42.0795                 4.3661

                     94                     95                     96
                      A                      A                      A
 Frequencies --   3210.1109              3210.1793              3211.0285
 Red. masses --      1.0956                 1.0956                 1.0956
 Frc consts  --      6.6520                 6.6519                 6.6555
 IR Inten    --     19.8597                19.3474                16.3170

 - Thermochemistry -
 -------------------
 Temperature   298.150 Kelvin.  Pressure   1.00000 Atm.
 Atom     1 has atomic number  6 and mass  12.00000

 Molecular mass:   262.09114 amu.
 Principal axes and moments of inertia in atomic units:
                           1         2         3
     Eigenvalues --  5161.197985164.707398681.07627
           X            0.99975  -0.02224   0.00002
           Y            0.02224   0.99975   0.00001
           Z           -0.00002  -0.00001   1.00000
 This molecule is an asymmetric top.
 Rotational symmetry number  1.
 Warning -- assumption of classical behavior for rotation
           may cause significant error
 Rotational temperatures (Kelvin)      0.01678     0.01677     0.00998
 Rotational constants (GHZ):           0.34967     0.34944     0.20789
 Zero-point vibrational energy     719909.4 (Joules/Mol)
                                  172.06248 (Kcal/Mol)
 Warning -- explicit consideration of  21 degrees of freedom as
           vibrations may cause significant error
 Vibrational temperatures:     30.16    31.71    54.02    76.40    76.64
          (Kelvin)            101.49   261.19   291.19   291.35   353.29
                              373.73   374.07   588.00   588.13   593.23
                              599.93   617.76   618.06   732.85   733.17
                              742.87   910.36   910.36   911.25   995.42
                             1014.49  1014.58  1024.68  1024.81  1026.16
                             1095.44  1097.55  1097.62  1246.11  1246.26
                             1249.89  1341.99  1342.25  1344.08  1403.82
                             1404.01  1406.54  1439.22  1439.31  1440.35
                             1460.89  1460.89  1461.43  1514.57  1514.63
                             1514.89  1593.66  1594.17  1596.29  1598.06
                             1598.17  1605.81  1717.13  1717.69  1717.78
                             1753.87  1754.37  1756.45  1906.33  1911.48
                             1911.82  1963.75  1964.21  1964.67  2130.09
                             2130.71  2130.83  2202.78  2203.38  2203.58
                             2345.41  2345.77  2345.86  2368.40  2368.45
                             2371.01  4569.67  4569.71  4569.77  4579.12
                             4579.15  4579.25  4593.78  4593.82  4593.98
                             4609.72  4609.78  4610.30  4618.63  4618.73
                             4619.95

 Zero-point correction=                           0.274199 (Hartree/Particle)
 Thermal correction to Energy=                    0.290132
 Thermal correction to Enthalpy=                  0.291076
 Thermal correction to Gibbs Free Energy=         0.227565
 Sum of electronic and zero-point Energies=          -1036.024030
 Sum of electronic and thermal Energies=             -1036.008097
 Sum of electronic and thermal Enthalpies=           -1036.007153
 Sum of electronic and thermal Free Energies=        -1036.070664

                     E (Thermal)             CV                S
                      KCal/Mol        Cal/Mol-Kelvin    Cal/Mol-Kelvin
 Total                  182.061             62.542            133.670
 Electronic               0.000              0.000              0.000
 Translational            0.889              2.981             42.590
 Rotational               0.889              2.981             33.803
 Vibrational            180.283             56.581             57.277
 Vibration     1          0.593              1.986              6.541
 Vibration     2          0.593              1.985              6.441
 Vibration     3          0.594              1.982              5.385
 Vibration     4          0.596              1.976              4.698
 Vibration     5          0.596              1.976              4.692
 Vibration     6          0.598              1.968              4.138
 Vibration     7          0.630              1.865              2.313
 Vibration     8          0.639              1.837              2.111
 Vibration     9          0.639              1.836              2.110
 Vibration    10          0.660              1.770              1.762
 Vibration    11          0.668              1.746              1.663
 Vibration    12          0.668              1.746              1.662
 Vibration    13          0.773              1.451              0.931
 Vibration    14          0.773              1.451              0.931
 Vibration    15          0.776              1.443              0.918
 Vibration    16          0.780              1.433              0.902
 Vibration    17          0.791              1.406              0.861
 Vibration    18          0.791              1.406              0.860
 Vibration    19          0.865              1.229              0.635
 Vibration    20          0.865              1.229              0.635
 Vibration    21          0.871              1.214              0.619

                           ! Non-Optimized Parameters !
 Normal termination of Gaussian 16 at Sun Aug 23 06:42:24 2020.
 Gaussian 16:  ES64L-G16RevA.03 25-Dec-2016

 ----------------------------------------------------------------------
 # TD(NStates=10, Root=1) B3LYP/6-31G* scf=qc volume pop=NPA density=cu
 rrent Geom=AllCheck Guess=Read
 ----------------------------------------------------------------------

 Structure from the checkpoint file:  "phosphine_1_conf263.chk"
 -------------------
 Title Card Required
 -------------------
 Charge =  0 Multiplicity = 1

                         Standard orientation:
 ---------------------------------------------------------------------
 Center     Atomic      Atomic             Coordinates (Angstroms)
 Number     Number       Type             X           Y           Z
 ---------------------------------------------------------------------
      1          6           0        3.358604    2.654520    0.650697
      2          6           0        3.574136    1.901390   -0.505408
      3          6           0        2.545366    1.120369   -1.031437
      4          6           0        1.289882    1.062266   -0.402837
      5          6           0        1.085482    1.825902    0.756547
      6          6           0        2.111877    2.617264    1.277049
      7         15           0       -0.000196    0.000371   -1.206430
      8          6           0        0.274776   -1.647620   -0.402528
      9          6           0        1.037183   -1.851650    0.757736
     10          6           0        1.209640   -3.135975    1.278711
     11          6           0        0.620001   -4.234840    0.651914
     12          6           0       -0.138845   -4.045695   -0.505066
     13          6           0       -0.301204   -2.764455   -1.031520
     14          6           0       -1.564838    0.585982   -0.402317
     15          6           0       -2.247399    1.639264   -1.034261
     16          6           0       -3.438392    2.138725   -0.507722
     17          6           0       -3.978357    1.579479    0.652390
     18          6           0       -3.318094    0.523355    1.282285
     19          6           0       -2.119467    0.031126    0.761156
     20          1           0        4.155666    3.271779    1.056869
     21          1           0        4.539694    1.930457   -1.003783
     22          1           0        2.714872    0.551952   -1.943194
     23          1           0        0.119970    1.806093    1.252996
     24          1           0        1.935656    3.204774    2.174677
     25          1           0        1.501680   -1.005116    1.254426
     26          1           0        1.805649   -3.276526    2.177030
     27          1           0        0.756288   -5.233570    1.058428
     28          1           0       -0.595283   -4.896852   -1.003786
     29          1           0       -0.877308   -2.627620   -1.943938
     30          1           0       -1.843313    2.067014   -1.949061
     31          1           0       -3.949979    2.956488   -1.008788
     32          1           0       -4.911581    1.960342    1.058996
     33          1           0       -3.735301    0.080119    2.183082
     34          1           0       -1.615871   -0.791343    1.260171
 ---------------------------------------------------------------------

 SCF Done:  E(RB3LYP) =  -1036.29822923     a.u. after    1 cycles

 Excitation energies and oscillator strengths:

 Excited State   1:      Singlet-A      4.5090 eV  274.97 nm  f=0.1274  <S**2>=0.000
      69 -> 70         0.69704
 This state for optimization and/or second-order correction.
 Total Energy, E(TD-HF/TD-DFT) =  -1036.13252637
 Copying the excited state density for this state as the 1-particle RhoCI density.

 Excited State   2:      Singlet-A      4.5115 eV  274.82 nm  f=0.1284  <S**2>=0.000
      69 -> 71         0.69700

 Excited State   3:      Singlet-A      4.7566 eV  260.66 nm  f=0.0022  <S**2>=0.000
      67 -> 70         0.12223
      68 -> 71         0.12277
      69 -> 72         0.67470

 Excited State   4:      Singlet-A      5.0573 eV  245.16 nm  f=0.0002  <S**2>=0.000
      66 -> 70        -0.16700
      67 -> 70        -0.13419
      68 -> 71         0.13390
      69 -> 74         0.63012

 Excited State   5:      Singlet-A      5.0583 eV  245.11 nm  f=0.0002  <S**2>=0.000
      66 -> 71        -0.16769
      67 -> 71         0.13492
      68 -> 70         0.13480
      69 -> 75         0.62952

 Excited State   6:      Singlet-A      5.1506 eV  240.72 nm  f=0.0085  <S**2>=0.000
      69 -> 73         0.67908

 Excited State   7:      Singlet-A      5.4276 eV  228.43 nm  f=0.0147  <S**2>=0.000
      63 -> 72        -0.16606
      64 -> 74        -0.14157
      65 -> 75        -0.13897
      67 -> 70         0.42291
      68 -> 71         0.41548
      69 -> 72        -0.16502

 Excited State   8:      Singlet-A      5.5138 eV  224.86 nm  f=0.0005  <S**2>=0.000
      63 -> 74         0.14356
      64 -> 71         0.11705
      64 -> 72         0.21904
      65 -> 70         0.12005
      65 -> 72        -0.17872
      66 -> 70         0.22648
      67 -> 70         0.25810
      68 -> 71        -0.27010
      68 -> 72         0.16341
      69 -> 74         0.28645

 Excited State   9:      Singlet-A      5.5150 eV  224.81 nm  f=0.0004  <S**2>=0.000
      63 -> 75         0.14406
      64 -> 70         0.11653
      64 -> 72         0.17910
      65 -> 71        -0.11604
      65 -> 72         0.21918
      66 -> 71         0.22495
      67 -> 71        -0.26227
      67 -> 72        -0.16404
      68 -> 70        -0.26838
      69 -> 75         0.28753

 Excited State  10:      Singlet-A      5.6182 eV  220.68 nm  f=0.0009  <S**2>=0.000
      67 -> 71        -0.47264
      68 -> 70         0.48204

 The electronic state is 1-A.
 Alpha  occ. eigenvalues --  -77.08113 -10.19448 -10.19447 -10.19446 -10.19149
 Alpha  occ. eigenvalues --  -10.19145 -10.19145 -10.19119 -10.19116 -10.19116
 Alpha  occ. eigenvalues --  -10.19033 -10.19029 -10.19029 -10.19009 -10.19006
 Alpha  occ. eigenvalues --  -10.19006 -10.18964 -10.18960 -10.18960  -6.54844
 Alpha  occ. eigenvalues --   -4.71103  -4.71103  -4.70601  -0.85560  -0.84847
 Alpha  occ. eigenvalues --   -0.84844  -0.76669  -0.74366  -0.74365  -0.74329
 Alpha  occ. eigenvalues --   -0.73822  -0.73820  -0.64436  -0.60336  -0.60308
 Alpha  occ. eigenvalues --   -0.60306  -0.59207  -0.59206  -0.55448  -0.51436
 Alpha  occ. eigenvalues --   -0.51434  -0.49295  -0.45441  -0.45439  -0.44773
 Alpha  occ. eigenvalues --   -0.44345  -0.44344  -0.44067  -0.41946  -0.41869
 Alpha  occ. eigenvalues --   -0.41867  -0.40379  -0.40376  -0.36844  -0.36353
 Alpha  occ. eigenvalues --   -0.36349  -0.35899  -0.34252  -0.34251  -0.34224
 Alpha  occ. eigenvalues --   -0.31885  -0.31883  -0.26778  -0.25450  -0.25444
 Alpha  occ. eigenvalues --   -0.25243  -0.24704  -0.24703  -0.21143
 Alpha virt. eigenvalues --   -0.01882  -0.01876  -0.00831   0.00173   0.00426
 Alpha virt. eigenvalues --    0.00432   0.06878   0.06890   0.09492   0.11038
 Alpha virt. eigenvalues --    0.11039   0.13904   0.14528   0.14529   0.15164

 Mulliken charges:
               1
     1  C   -0.133436
     2  C   -0.116559
     3  C   -0.168294
     4  C   -0.100892
     5  C   -0.150573
     6  C   -0.123058
     7  P    0.450652
     8  C   -0.087107
     9  C   -0.159504
    10  C   -0.116194
    11  C   -0.132429
    12  C   -0.123304
    13  C   -0.152300
    14  C   -0.133253
    15  C   -0.171611
    16  C   -0.123205
    17  C   -0.170327
    18  C   -0.118780
    19  C   -0.175552
    20  H    0.136876
    21  H    0.135140
    22  H    0.137309
    23  H    0.173243
    24  H    0.140282
    25  H    0.154225
    26  H    0.140039
    27  H    0.137985
    28  H    0.137480
    29  H    0.144569
    30  H    0.112238
    31  H    0.111923
    32  H    0.105691
    33  H    0.115356
    34  H    0.123371
 Sum of Mulliken charges =  -0.00000

 Dipole moment (field-independent basis, Debye):
    X=              3.4962    Y=             -1.4397    Z=             -0.1966  Tot=              3.7861
 Quadrupole moment (field-independent basis, Debye-Ang):
   XX=           -118.7998   YY=           -108.2572   ZZ=           -110.6725
   XY=              4.6813   XZ=              1.3293   YZ=              0.3220

 Summary of Natural Population Analysis:

                                       Natural Population
                Natural  -----------------------------------------------
    Atom  No    Charge         Core      Valence    Rydberg      Total
 -----------------------------------------------------------------------
      C    1   -0.22273      1.99909     4.20905    0.01458     6.22273
      C    2   -0.23162      1.99910     4.21829    0.01424     6.23162
      C    3   -0.22190      1.99902     4.20722    0.01566     6.22190
      C    4   -0.41495      1.99890     4.39003    0.02602     6.41495
      C    5   -0.20766      1.99900     4.19214    0.01653     6.20766
      C    6   -0.23604      1.99909     4.22259    0.01436     6.23604
      P    7    1.24217      9.99750     3.71009    0.05024    13.75783
      C    8   -0.39328      1.99889     4.37032    0.02407     6.39328
      C    9   -0.23126      1.99899     4.21552    0.01674     6.23126
      C   10   -0.22380      1.99909     4.21067    0.01404     6.22380
      C   11   -0.22082      1.99909     4.20727    0.01446     6.22082
      C   12   -0.24343      1.99910     4.22968    0.01466     6.24343
      C   13   -0.19830      1.99901     4.18409    0.01520     6.19830
      C   14   -0.48845      1.99886     4.46418    0.02541     6.48845
      C   15   -0.23407      1.99901     4.21870    0.01636     6.23407
      C   16   -0.24556      1.99910     4.23140    0.01507     6.24556
      C   17   -0.30103      1.99910     4.28515    0.01679     6.30103
      C   18   -0.23021      1.99909     4.21651    0.01462     6.23021
      C   19   -0.26391      1.99899     4.24681    0.01811     6.26391
      H   20    0.23804      0.00000     0.76109    0.00087     0.76196
      H   21    0.23923      0.00000     0.75983    0.00095     0.76077
      H   22    0.23537      0.00000     0.76354    0.00108     0.76463
      H   23    0.25967      0.00000     0.73895    0.00138     0.74033
      H   24    0.24268      0.00000     0.75644    0.00088     0.75732
      H   25    0.24952      0.00000     0.74923    0.00125     0.75048
      H   26    0.24242      0.00000     0.75671    0.00087     0.75758
      H   27    0.23862      0.00000     0.76053    0.00085     0.76138
      H   28    0.24102      0.00000     0.75811    0.00087     0.75898
      H   29    0.24062      0.00000     0.75813    0.00125     0.75938
      H   30    0.22318      0.00000     0.77583    0.00099     0.77682
      H   31    0.22883      0.00000     0.77026    0.00091     0.77117
      H   32    0.22461      0.00000     0.77450    0.00089     0.77539
      H   33    0.23106      0.00000     0.76807    0.00088     0.76894
      H   34    0.23200      0.00000     0.76650    0.00150     0.76800
 =======================================================================
   * Total *   -0.00000     45.98001    91.64741    0.37258   138.00000

 Normal termination of Gaussian 16 at Sun Aug 23 06:53:52 2020.
