 Gaussian 16, Revision A.03,

 ---------------------------------
 # opt=CalcAll B3LYP/6-31G* scf=qc
 ---------------------------------

 -------------------
 Title Card Required
 -------------------
 Symbolic Z-matrix:
 Charge =  0 Multiplicity = 1

 SCF Done:  E(RB3LYP) =  -814.851501021     a.u. after    7 cycles
 SCF Done:  E(RB3LYP) =  -814.865128431     a.u. after   15 cycles
 SCF Done:  E(RB3LYP) =  -814.892484570     a.u. after   13 cycles
 SCF Done:  E(RB3LYP) =  -814.899948648     a.u. after   15 cycles
 SCF Done:  E(RB3LYP) =  -814.906042718     a.u. after   15 cycles
 SCF Done:  E(RB3LYP) =  -814.906999224     a.u. after    9 cycles
 SCF Done:  E(RB3LYP) =  -814.907116452     a.u. after   13 cycles
 SCF Done:  E(RB3LYP) =  -814.907211871     a.u. after    9 cycles
 SCF Done:  E(RB3LYP) =  -814.907219331     a.u. after    5 cycles
 SCF Done:  E(RB3LYP) =  -814.907218759     a.u. after    3 cycles
 SCF Done:  E(RB3LYP) =  -814.907218822     a.u. after    2 cycles
 Optimization completed.
    -- Stationary point found.
 Normal termination of Gaussian 16 at Sun Aug 23 09:38:10 2020.

 ----------------------------------------------------------------------
 # freq B3LYP/6-31G* scf=qc volume NMR pop=NPA density=current Geom=All
 Check Guess=Read
 ----------------------------------------------------------------------

 Structure from the checkpoint file:  "phosphine_2_conf272.chk"
 -------------------
 Title Card Required
 -------------------
 Charge =  0 Multiplicity = 1

 SCF Done:  E(RB3LYP) =  -814.907218822     a.u. after    1 cycles

      1  C    Isotropic =   173.7335   Anisotropy =    12.5197

      2  C    Isotropic =   162.0358   Anisotropy =    19.0135

      3  C    Isotropic =   163.2748   Anisotropy =    14.0298

      4  C    Isotropic =   156.9460   Anisotropy =    22.3608

      5  H    Isotropic =    31.1470   Anisotropy =     5.8248

      6  H    Isotropic =    30.6716   Anisotropy =     5.6404

      7  P    Isotropic =   399.4174   Anisotropy =    34.5966

      8  C    Isotropic =   155.4413   Anisotropy =    33.5592

      9  H    Isotropic =    30.3984   Anisotropy =     5.8994

     10  H    Isotropic =    30.9392   Anisotropy =     5.8115

     11  C    Isotropic =   161.0010   Anisotropy =    12.4787

     12  C    Isotropic =   167.8344   Anisotropy =    11.0824

     13  C    Isotropic =   176.4313   Anisotropy =    18.9307

     14  C    Isotropic =   154.7161   Anisotropy =    32.3246

     15  H    Isotropic =    31.0273   Anisotropy =     4.2339

     16  H    Isotropic =    30.6623   Anisotropy =     4.6762

     17  C    Isotropic =   155.9070   Anisotropy =    34.3663

     18  C    Isotropic =   161.3759   Anisotropy =    24.3770

     19  C    Isotropic =   173.6660   Anisotropy =    24.2538

     20  H    Isotropic =    31.1980   Anisotropy =    10.1697

     21  H    Isotropic =    31.3948   Anisotropy =     6.7586

     22  H    Isotropic =    30.5478   Anisotropy =     6.6415

     23  H    Isotropic =    30.5059   Anisotropy =     9.6386

     24  H    Isotropic =    30.7220   Anisotropy =     7.4950

     25  H    Isotropic =    30.8325   Anisotropy =     4.6246

     26  H    Isotropic =    30.4323   Anisotropy =     9.3971

     27  H    Isotropic =    30.3461   Anisotropy =     6.4047

     28  H    Isotropic =    30.5327   Anisotropy =     8.9627

     29  H    Isotropic =    30.1435   Anisotropy =     5.7867

     30  H    Isotropic =    30.7987   Anisotropy =     9.0572

     31  H    Isotropic =    30.8916   Anisotropy =     5.9997

     32  H    Isotropic =    31.1513   Anisotropy =    10.1212

     33  H    Isotropic =    31.5328   Anisotropy =     9.2467

     34  H    Isotropic =    30.5908   Anisotropy =     6.3487

     35  H    Isotropic =    30.4688   Anisotropy =     4.2544

     36  H    Isotropic =    30.7359   Anisotropy =     6.0074

     37  H    Isotropic =    30.6879   Anisotropy =     5.7833

     38  H    Isotropic =    31.2013   Anisotropy =     7.7476

     39  H    Isotropic =    31.0654   Anisotropy =    10.4545

     40  H    Isotropic =    31.2494   Anisotropy =     7.5099

  Exact polarizability: 168.698  -2.779 158.758  -0.790   0.428 131.843
 Approx polarizability: 213.414  -1.780 212.925  -1.081  -3.049 196.245

                      1                      2                      3
                      A                      A                      A
 Frequencies --     16.7476                19.8489                38.1043
 Red. masses --      2.9674                 3.1336                 2.5306
 Frc consts  --      0.0005                 0.0007                 0.0022
 IR Inten    --      0.0071                 0.0040                 0.0406

                      4                      5                      6
                      A                      A                      A
 Frequencies --     45.7902                57.2102                78.4818
 Red. masses --      2.7875                 1.8889                 2.3319
 Frc consts  --      0.0034                 0.0036                 0.0085
 IR Inten    --      0.0349                 0.0305                 0.0527

                      7                      8                      9
                      A                      A                      A
 Frequencies --     88.1917               113.5862               126.9299
 Red. masses --      2.2758                 3.1096                 2.2775
 Frc consts  --      0.0104                 0.0236                 0.0216
 IR Inten    --      0.1443                 0.2599                 0.2210

                     10                     11                     12
                      A                      A                      A
 Frequencies --    135.6072               163.2880               177.5936
 Red. masses --      2.1878                 1.9006                 2.4266
 Frc consts  --      0.0237                 0.0299                 0.0451
 IR Inten    --      0.0661                 0.2543                 0.1538

                     13                     14                     15
                      A                      A                      A
 Frequencies --    215.9943               241.0501               245.5038
 Red. masses --      2.3874                 1.3055                 1.2431
 Frc consts  --      0.0656                 0.0447                 0.0441
 IR Inten    --      0.1320                 0.2027                 0.1121

                     16                     17                     18
                      A                      A                      A
 Frequencies --    255.8427               289.0322               290.3102
 Red. masses --      1.4125                 2.8970                 2.4776
 Frc consts  --      0.0545                 0.1426                 0.1230
 IR Inten    --      0.0980                 0.0439                 0.2034

                     19                     20                     21
                      A                      A                      A
 Frequencies --    314.3737               333.4531               370.7847
 Red. masses --      1.8135                 2.5745                 2.1432
 Frc consts  --      0.1056                 0.1687                 0.1736
 IR Inten    --      0.0187                 0.2531                 0.3707

                     22                     23                     24
                      A                      A                      A
 Frequencies --    417.6316               448.5915               469.2991
 Red. masses --      2.7263                 1.8214                 2.2436
 Frc consts  --      0.2802                 0.2159                 0.2911
 IR Inten    --      1.1695                 1.0372                 0.7106

                     25                     26                     27
                      A                      A                      A
 Frequencies --    627.2365               655.0301               704.8484
 Red. masses --      3.4317                 3.7044                 1.9889
 Frc consts  --      0.7955                 0.9365                 0.5822
 IR Inten    --      7.8833                 7.2659                 8.8258

                     28                     29                     30
                      A                      A                      A
 Frequencies --    729.1124               752.1805               775.7690
 Red. masses --      1.3744                 1.3531                 1.2164
 Frc consts  --      0.4305                 0.4511                 0.4313
 IR Inten    --      3.6284                 2.7327                 1.4490

                     31                     32                     33
                      A                      A                      A
 Frequencies --    779.3626               787.0951               806.2447
 Red. masses --      1.2549                 1.9735                 2.0921
 Frc consts  --      0.4491                 0.7203                 0.8013
 IR Inten    --      2.1592                 4.3889                 4.7637

                     34                     35                     36
                      A                      A                      A
 Frequencies --    872.1466               884.9564               898.8999
 Red. masses --      1.9045                 1.5869                 1.3575
 Frc consts  --      0.8535                 0.7322                 0.6463
 IR Inten    --      2.4019                 1.1872                 1.4880

                     37                     38                     39
                      A                      A                      A
 Frequencies --    905.9967               913.3534               930.4477
 Red. masses --      1.5493                 1.4989                 1.5400
 Frc consts  --      0.7493                 0.7367                 0.7855
 IR Inten    --      1.6882                 7.8523                10.6829

                     40                     41                     42
                      A                      A                      A
 Frequencies --    981.4288               991.2053              1023.6946
 Red. masses --      1.9980                 2.0117                 3.5589
 Frc consts  --      1.1339                 1.1645                 2.1974
 IR Inten    --      5.9488                 1.3481                 0.6702

                     43                     44                     45
                      A                      A                      A
 Frequencies --   1052.7088              1066.5736              1078.4764
 Red. masses --      1.3102                 2.4082                 1.4513
 Frc consts  --      0.8555                 1.6141                 0.9945
 IR Inten    --      0.9643                 0.5044                 4.2278

                     46                     47                     48
                      A                      A                      A
 Frequencies --   1084.8503              1092.2162              1099.0054
 Red. masses --      1.7414                 1.4547                 1.5001
 Frc consts  --      1.2075                 1.0224                 1.0675
 IR Inten    --      2.4115                 1.5355                 5.9677

                     49                     50                     51
                      A                      A                      A
 Frequencies --   1110.3428              1120.0315              1123.9757
 Red. masses --      1.5755                 1.8925                 1.9106
 Frc consts  --      1.1444                 1.3987                 1.4221
 IR Inten    --      1.8694                 1.8841                 2.1469

                     52                     53                     54
                      A                      A                      A
 Frequencies --   1207.6772              1230.9337              1242.8477
 Red. masses --      1.3755                 1.4156                 1.3703
 Frc consts  --      1.1820                 1.2637                 1.2471
 IR Inten    --      1.6560                 0.0084                 7.7094

                     55                     56                     57
                      A                      A                      A
 Frequencies --   1245.4959              1249.2008              1265.9314
 Red. masses --      1.3680                 1.4268                 1.3158
 Frc consts  --      1.2503                 1.3118                 1.2424
 IR Inten    --      1.8216                 1.9867                 1.3216

                     58                     59                     60
                      A                      A                      A
 Frequencies --   1313.9068              1322.6200              1323.9730
 Red. masses --      1.2443                 1.2250                 1.2090
 Frc consts  --      1.2656                 1.2626                 1.2487
 IR Inten    --      3.9660                 1.6697                 1.8042

                     61                     62                     63
                      A                      A                      A
 Frequencies --   1337.2769              1341.3556              1348.0626
 Red. masses --      1.1660                 1.1918                 1.1157
 Frc consts  --      1.2285                 1.2634                 1.1946
 IR Inten    --      2.2709                 1.8759                 0.9288

                     64                     65                     66
                      A                      A                      A
 Frequencies --   1350.5210              1394.4802              1398.2095
 Red. masses --      1.2806                 1.3434                 1.3318
 Frc consts  --      1.3762                 1.5391                 1.5341
 IR Inten    --      3.0489                16.2427                 6.0186

                     67                     68                     69
                      A                      A                      A
 Frequencies --   1402.2443              1404.0016              1411.8058
 Red. masses --      1.4111                 1.4519                 1.5187
 Frc consts  --      1.6347                 1.6862                 1.7835
 IR Inten    --      4.3102                 3.5423                 1.1232

                     70                     71                     72
                      A                      A                      A
 Frequencies --   1440.6956              1441.7096              1447.1748
 Red. masses --      1.2420                 1.2645                 1.2533
 Frc consts  --      1.5189                 1.5486                 1.5465
 IR Inten    --      1.7784                 5.9949                 4.8705

                     73                     74                     75
                      A                      A                      A
 Frequencies --   1483.5162              1493.1202              1496.1733
 Red. masses --      1.0867                 1.0868                 1.0835
 Frc consts  --      1.4090                 1.4275                 1.4290
 IR Inten    --      1.1250                 3.9617                 5.2327

                     76                     77                     78
                      A                      A                      A
 Frequencies --   1514.7613              1516.0861              1517.4305
 Red. masses --      1.0719                 1.0627                 1.0678
 Frc consts  --      1.4490                 1.4392                 1.4487
 IR Inten    --      0.7059                 2.0536                 3.9505

                     79                     80                     81
                      A                      A                      A
 Frequencies --   1519.4633              1520.9178              1526.7470
 Red. masses --      1.0728                 1.0747                 1.0685
 Frc consts  --      1.4593                 1.4648                 1.4674
 IR Inten    --      1.0470                 1.5839                 0.3334

                     82                     83                     84
                      A                      A                      A
 Frequencies --   1529.7798              1530.4218              1532.5812
 Red. masses --      1.0410                 1.0450                 1.0650
 Frc consts  --      1.4353                 1.4421                 1.4739
 IR Inten    --      6.1682                10.4596                 7.0058

                     85                     86                     87
                      A                      A                      A
 Frequencies --   1534.0731              1539.3924              1540.7352
 Red. masses --      1.0773                 1.0557                 1.0811
 Frc consts  --      1.4937                 1.4740                 1.5120
 IR Inten    --      8.3182                 5.2644                 2.4387

                     88                     89                     90
                      A                      A                      A
 Frequencies --   3012.0040              3013.5959              3016.2191
 Red. masses --      1.0608                 1.0645                 1.0622
 Frc consts  --      5.6703                 5.6960                 5.6935
 IR Inten    --      9.9324                12.7045                16.3200

                     91                     92                     93
                      A                      A                      A
 Frequencies --   3020.6147              3022.2116              3022.6886
 Red. masses --      1.0630                 1.0597                 1.0635
 Frc consts  --      5.7142                 5.7030                 5.7248
 IR Inten    --     22.2270                 2.4676                14.6501

                     94                     95                     96
                      A                      A                      A
 Frequencies --   3025.4057              3034.0343              3036.1035
 Red. masses --      1.0629                 1.0596                 1.0648
 Frc consts  --      5.7321                 5.7471                 5.7828
 IR Inten    --     70.6102                42.1411                16.6706

                     97                     98                     99
                      A                      A                      A
 Frequencies --   3041.8773              3041.9467              3045.1900
 Red. masses --      1.0385                 1.0381                 1.0434
 Frc consts  --      5.6616                 5.6597                 5.7005
 IR Inten    --     20.0551                49.0334                24.4742

                    100                    101                    102
                      A                      A                      A
 Frequencies --   3045.5594              3053.9111              3056.6594
 Red. masses --      1.0995                 1.0921                 1.1007
 Frc consts  --      6.0087                 6.0011                 6.0590
 IR Inten    --      6.3413                47.4055                25.5278

                    103                    104                    105
                      A                      A                      A
 Frequencies --   3058.0697              3059.1236              3066.4225
 Red. masses --      1.0983                 1.0991                 1.1010
 Frc consts  --      6.0517                 6.0601                 6.0994
 IR Inten    --      7.7463                42.7162                12.0354

                    106                    107                    108
                      A                      A                      A
 Frequencies --   3071.3508              3076.4327              3080.9778
 Red. masses --      1.0993                 1.1003                 1.1025
 Frc consts  --      6.1097                 6.1357                 6.1660
 IR Inten    --     22.3099                90.2687                34.8287

                    109                    110                    111
                      A                      A                      A
 Frequencies --   3104.7027              3106.4604              3106.6500
 Red. masses --      1.1021                 1.1011                 1.1026
 Frc consts  --      6.2594                 6.2603                 6.2701
 IR Inten    --     55.3520                20.4399                88.0893

                    112                    113                    114
                      A                      A                      A
 Frequencies --   3110.8060              3115.4684              3130.2497
 Red. masses --      1.1020                 1.1019                 1.1001
 Frc consts  --      6.2829                 6.3012                 6.3507
 IR Inten    --     43.6858                55.2022                38.6365

 - Thermochemistry -
 -------------------
 Temperature   298.150 Kelvin.  Pressure   1.00000 Atm.
 Atom     1 has atomic number  6 and mass  12.00000

 Molecular mass:   202.18504 amu.
 Principal axes and moments of inertia in atomic units:
                           1         2         3
     Eigenvalues --  3393.447724454.032906734.92783
           X            0.99989   0.01458   0.00049
           Y           -0.01458   0.99989   0.00101
           Z           -0.00048  -0.00101   1.00000
 This molecule is an asymmetric top.
 Rotational symmetry number  1.
 Warning -- assumption of classical behavior for rotation
           may cause significant error
 Rotational temperatures (Kelvin)      0.02552     0.01945     0.01286
 Rotational constants (GHZ):           0.53183     0.40519     0.26797
 Zero-point vibrational energy     976694.1 (Joules/Mol)
                                  233.43548 (Kcal/Mol)
 Warning -- explicit consideration of  24 degrees of freedom as
           vibrations may cause significant error
 Vibrational temperatures:     24.10    28.56    54.82    65.88    82.31
          (Kelvin)            112.92   126.89   163.43   182.62   195.11
                              234.93   255.52   310.77   346.82   353.23
                              368.10   415.85   417.69   452.31   479.76
                              533.48   600.88   645.42   675.22   902.45
                              942.44  1014.12  1049.03  1082.22  1116.16
                             1121.33  1132.45  1160.01  1254.82  1273.25
                             1293.32  1303.53  1314.11  1338.71  1412.06
                             1426.12  1472.87  1514.61  1534.56  1551.69
                             1560.86  1571.46  1581.22  1597.54  1611.48
                             1617.15  1737.58  1771.04  1788.18  1791.99
                             1797.32  1821.39  1890.42  1902.96  1904.90
                             1924.04  1929.91  1939.56  1943.10  2006.35
                             2011.71  2017.52  2020.05  2031.27  2072.84
                             2074.30  2082.16  2134.45  2148.27  2152.66
                             2179.40  2181.31  2183.24  2186.17  2188.26
                             2196.65  2201.01  2201.94  2205.04  2207.19
                             2214.84  2216.77  4333.60  4335.89  4339.67
                             4345.99  4348.29  4348.97  4352.88  4365.30
                             4368.28  4376.58  4376.68  4381.35  4381.88
                             4393.90  4397.85  4399.88  4401.40  4411.90
                             4418.99  4426.30  4432.84  4466.97  4469.50
                             4469.78  4475.76  4482.46  4503.73

 Zero-point correction=                           0.372003 (Hartree/Particle)
 Thermal correction to Energy=                    0.390636
 Thermal correction to Enthalpy=                  0.391580
 Thermal correction to Gibbs Free Energy=         0.322198
 Sum of electronic and zero-point Energies=           -814.535216
 Sum of electronic and thermal Energies=              -814.516583
 Sum of electronic and thermal Enthalpies=            -814.515639
 Sum of electronic and thermal Free Energies=         -814.585020

                     E (Thermal)             CV                S
                      KCal/Mol        Cal/Mol-Kelvin    Cal/Mol-Kelvin
 Total                  245.128             66.224            146.026
 Electronic               0.000              0.000              0.000
 Translational            0.889              2.981             41.817
 Rotational               0.889              2.981             32.987
 Vibrational            243.350             60.263             71.223
 Vibration     1          0.593              1.986              6.987
 Vibration     2          0.593              1.986              6.649
 Vibration     3          0.594              1.982              5.355
 Vibration     4          0.595              1.979              4.991
 Vibration     5          0.596              1.975              4.551
 Vibration     6          0.600              1.964              3.928
 Vibration     7          0.601              1.957              3.700
 Vibration     8          0.607              1.938              3.207
 Vibration     9          0.611              1.926              2.992
 Vibration    10          0.613              1.918              2.865
 Vibration    11          0.623              1.887              2.511
 Vibration    12          0.628              1.870              2.354
 Vibration    13          0.645              1.817              1.992
 Vibration    14          0.658              1.778              1.795
 Vibration    15          0.660              1.770              1.763
 Vibration    16          0.666              1.753              1.690
 Vibration    17          0.686              1.694              1.480
 Vibration    18          0.686              1.692              1.472
 Vibration    19          0.702              1.646              1.339
 Vibration    20          0.715              1.609              1.243
 Vibration    21          0.743              1.532              1.077
 Vibration    22          0.781              1.432              0.900
 Vibration    23          0.808              1.364              0.800
 Vibration    24          0.826              1.318              0.740

 Optimization completed.
    -- Stationary point found.
 Normal termination of Gaussian 16 at Sun Aug 23 09:45:24 2020.
 Gaussian 16:  ES64L-G16RevA.03 25-Dec-2016

 ----------------------------------------------------------------------
 # TD(NStates=10, Root=1) B3LYP/6-31G* scf=qc volume pop=NPA density=cu
 rrent Geom=AllCheck Guess=Read
 ----------------------------------------------------------------------

 Structure from the checkpoint file:  "phosphine_2_conf273.chk"
 -------------------
 Title Card Required
 -------------------
 Charge =  0 Multiplicity = 1

                         Standard orientation:
 ---------------------------------------------------------------------
 Center     Atomic      Atomic             Coordinates (Angstroms)
 Number     Number       Type             X           Y           Z
 ---------------------------------------------------------------------
      1          6           0        3.443045   -0.936925    1.690037
      2          6           0        3.814211   -1.502008    0.314620
      3          6           0        2.637577   -1.773812   -0.639829
      4          6           0        1.900262   -0.524815   -1.173746
      5          1           0        2.616701    0.300146   -1.289177
      6          1           0        1.507393   -0.730394   -2.179406
      7         15           0        0.484412    0.119057   -0.110397
      8          6           0        0.039985    1.590061   -1.200883
      9          1           0        0.930021    2.232831   -1.217458
     10          1           0       -0.106224    1.240220   -2.233111
     11          6           0       -1.185206    2.416155   -0.766463
     12          6           0       -1.105408    3.053059    0.631758
     13          6           0        0.029981    4.069400    0.797632
     14          6           0       -0.837886   -1.123744   -0.612253
     15          1           0       -1.125651   -0.962253   -1.661968
     16          1           0       -0.363967   -2.114287   -0.570415
     17          6           0       -2.080251   -1.134052    0.291973
     18          6           0       -3.104879   -2.205586   -0.107366
     19          6           0       -4.340872   -2.223985    0.798020
     20          1           0        4.336785   -0.824417    2.315572
     21          1           0        2.748914   -1.603757    2.216181
     22          1           0        2.956786    0.040542    1.616983
     23          1           0        4.358651   -2.445870    0.456705
     24          1           0        4.519890   -0.820590   -0.182863
     25          1           0        1.928026   -2.459123   -0.153343
     26          1           0        3.032334   -2.325745   -1.503668
     27          1           0       -2.084056    1.787929   -0.820477
     28          1           0       -1.336345    3.214629   -1.508287
     29          1           0       -1.000231    2.266094    1.389505
     30          1           0       -2.063420    3.550756    0.834812
     31          1           0        1.014987    3.597590    0.708633
     32          1           0       -0.013397    4.548129    1.782539
     33          1           0       -0.031472    4.861122    0.039743
     34          1           0       -2.568472   -0.149923    0.276022
     35          1           0       -1.768136   -1.297964    1.332657
     36          1           0       -2.620626   -3.192481   -0.087871
     37          1           0       -3.415340   -2.040553   -1.149033
     38          1           0       -4.065038   -2.421681    1.841141
     39          1           0       -5.052188   -2.998463    0.489001
     40          1           0       -4.865464   -1.260835    0.772533
 ---------------------------------------------------------------------

 SCF Done:  E(RB3LYP) =  -814.907218822     a.u. after    1 cycles

 Excitation energies and oscillator strengths:

 Excited State   1:      Singlet-A      6.4293 eV  192.84 nm  f=0.1312  <S**2>=0.000
      57 -> 58         0.69651
 This state for optimization and/or second-order correction.
 Total Energy, E(TD-HF/TD-DFT) =  -814.670946386
 Copying the excited state density for this state as the 1-particle RhoCI density.

 Excited State   2:      Singlet-A      6.5713 eV  188.68 nm  f=0.1206  <S**2>=0.000
      57 -> 59         0.69633

 Excited State   3:      Singlet-A      7.0332 eV  176.28 nm  f=0.0068  <S**2>=0.000
      57 -> 60         0.69858

 Excited State   4:      Singlet-A      7.6445 eV  162.19 nm  f=0.0085  <S**2>=0.000
      57 -> 61         0.66327
      57 -> 62         0.17013
      57 -> 63        -0.10514

 Excited State   5:      Singlet-A      7.8740 eV  157.46 nm  f=0.0096  <S**2>=0.000
      57 -> 61        -0.13486
      57 -> 62         0.65521
      57 -> 64         0.11386
      57 -> 65         0.12153

 Excited State   6:      Singlet-A      7.9727 eV  155.51 nm  f=0.0300  <S**2>=0.000
      57 -> 61         0.12932
      57 -> 63         0.66833

 Excited State   7:      Singlet-A      8.1259 eV  152.58 nm  f=0.0334  <S**2>=0.000
      57 -> 62        -0.11154
      57 -> 64         0.67752

 Excited State   8:      Singlet-A      8.1888 eV  151.41 nm  f=0.0003  <S**2>=0.000
      55 -> 58         0.47295
      56 -> 58         0.10062
      56 -> 59         0.49145

 Excited State   9:      Singlet-A      8.3240 eV  148.95 nm  f=0.0215  <S**2>=0.000
      55 -> 59        -0.15441
      56 -> 58        -0.22979
      57 -> 65         0.59219
      57 -> 66        -0.15518

 Excited State  10:      Singlet-A      8.3865 eV  147.84 nm  f=0.0262  <S**2>=0.000
      55 -> 58        -0.31965
      56 -> 58        -0.27281
      56 -> 59         0.36081
      57 -> 62         0.10119
      57 -> 65        -0.12416
      57 -> 66        -0.34904
      57 -> 67         0.14494

 The electronic state is 1-A.
 Alpha  occ. eigenvalues --  -77.06313 -10.18116 -10.18094 -10.18047 -10.18011
 Alpha  occ. eigenvalues --  -10.17981 -10.17852 -10.17822 -10.17621 -10.17424
 Alpha  occ. eigenvalues --  -10.17141 -10.16822 -10.16290  -6.53071  -4.69326
 Alpha  occ. eigenvalues --   -4.69316  -4.68830  -0.79825  -0.78695  -0.78589
 Alpha  occ. eigenvalues --   -0.73955  -0.71375  -0.71091  -0.65957  -0.62895
 Alpha  occ. eigenvalues --   -0.62423  -0.57752  -0.57201  -0.55681  -0.51414
 Alpha  occ. eigenvalues --   -0.47160  -0.45657  -0.45134  -0.44736  -0.43528
 Alpha  occ. eigenvalues --   -0.42398  -0.41836  -0.40792  -0.39620  -0.39109
 Alpha  occ. eigenvalues --   -0.38527  -0.38037  -0.37834  -0.36411  -0.35530
 Alpha  occ. eigenvalues --   -0.35376  -0.33873  -0.33151  -0.32948  -0.32637
 Alpha  occ. eigenvalues --   -0.32347  -0.31981  -0.31791  -0.31627  -0.28788
 Alpha  occ. eigenvalues --   -0.28564  -0.21243
 Alpha virt. eigenvalues --    0.05353   0.05659   0.07673   0.09724   0.10807
 Alpha virt. eigenvalues --    0.11250   0.11509   0.12294   0.12799   0.14067
 Alpha virt. eigenvalues --    0.14380   0.14997   0.15121   0.15362   0.15716

 Mulliken charges:
               1
     1  C   -0.432194
     2  C   -0.241274
     3  C   -0.261006
     4  C   -0.409108
     5  H    0.139981
     6  H    0.135781
     7  P    0.335781
     8  C   -0.427026
     9  H    0.164488
    10  H    0.178290
    11  C   -0.227346
    12  C   -0.226524
    13  C   -0.447991
    14  C   -0.425964
    15  H    0.173819
    16  H    0.143348
    17  C   -0.215782
    18  C   -0.255666
    19  C   -0.440555
    20  H    0.136700
    21  H    0.136129
    22  H    0.146225
    23  H    0.130097
    24  H    0.125115
    25  H    0.130159
    26  H    0.136209
    27  H    0.116794
    28  H    0.107891
    29  H    0.115961
    30  H    0.123106
    31  H    0.140015
    32  H    0.139893
    33  H    0.137735
    34  H    0.115883
    35  H    0.126332
    36  H    0.126522
    37  H    0.122947
    38  H    0.141781
    39  H    0.140138
    40  H    0.143315
 Sum of Mulliken charges =  -0.00000

 Dipole moment (field-independent basis, Debye):
    X=              0.5794    Y=             -0.5631    Z=             -1.3866  Tot=              1.6048
 Quadrupole moment (field-independent basis, Debye-Ang):
   XX=            -97.3880   YY=            -96.2480   ZZ=            -94.1287
   XY=              0.0929   XZ=              0.4266   YZ=             -0.9757

 Summary of Natural Population Analysis:

                                       Natural Population
                Natural  -----------------------------------------------
    Atom  No    Charge         Core      Valence    Rydberg      Total
 -----------------------------------------------------------------------
      C    1   -0.67822      1.99945     4.67114    0.00763     6.67822
      C    2   -0.45341      1.99935     4.44322    0.01084     6.45341
      C    3   -0.46162      1.99932     4.44938    0.01291     6.46162
      C    4   -0.86104      1.99933     4.83720    0.02452     6.86104
      H    5    0.24235      0.00000     0.75446    0.00319     0.75765
      H    6    0.24312      0.00000     0.75089    0.00599     0.75688
      P    7    1.00376      9.99763     3.89532    0.10329    13.99624
      C    8   -0.76137      1.99930     4.74404    0.01803     6.76137
      H    9    0.24642      0.00000     0.75069    0.00290     0.75358
      H   10    0.27003      0.00000     0.72794    0.00203     0.72997
      C   11   -0.46322      1.99931     4.44829    0.01562     6.46322
      C   12   -0.46103      1.99934     4.44930    0.01238     6.46103
      C   13   -0.67960      1.99946     4.67181    0.00833     6.67960
      C   14   -0.78401      1.99929     4.76268    0.02203     6.78401
      H   15    0.25966      0.00000     0.73806    0.00228     0.74034
      H   16    0.22813      0.00000     0.76573    0.00614     0.77187
      C   17   -0.46388      1.99932     4.44899    0.01558     6.46388
      C   18   -0.45765      1.99934     4.44658    0.01173     6.45765
      C   19   -0.67253      1.99946     4.66550    0.00757     6.67253
      H   20    0.22882      0.00000     0.76895    0.00223     0.77118
      H   21    0.22187      0.00000     0.77610    0.00203     0.77813
      H   22    0.21789      0.00000     0.77875    0.00335     0.78211
      H   23    0.23157      0.00000     0.76629    0.00214     0.76843
      H   24    0.22267      0.00000     0.77364    0.00369     0.77733
      H   25    0.22155      0.00000     0.77624    0.00221     0.77845
      H   26    0.24229      0.00000     0.75564    0.00206     0.75771
      H   27    0.21896      0.00000     0.77153    0.00951     0.78104
      H   28    0.22109      0.00000     0.77116    0.00775     0.77891
      H   29    0.21277      0.00000     0.77506    0.01217     0.78723
      H   30    0.22984      0.00000     0.76726    0.00290     0.77016
      H   31    0.21898      0.00000     0.77996    0.00106     0.78102
      H   32    0.23025      0.00000     0.76830    0.00144     0.76975
      H   33    0.22241      0.00000     0.77620    0.00140     0.77759
      H   34    0.21190      0.00000     0.77446    0.01364     0.78810
      H   35    0.22538      0.00000     0.77110    0.00352     0.77462
      H   36    0.22414      0.00000     0.77347    0.00239     0.77586
      H   37    0.22152      0.00000     0.77615    0.00233     0.77848
      H   38    0.22452      0.00000     0.77434    0.00114     0.77548
      H   39    0.23038      0.00000     0.76877    0.00085     0.76962
      H   40    0.22531      0.00000     0.77358    0.00111     0.77469
 =======================================================================
   * Total *   -0.00000     33.98990    79.63817    0.37193   114.00000

 Normal termination of Gaussian 16 at Sun Aug 23 09:53:25 2020.
