 Gaussian 16, Revision A.03,

 ---------------------------------
 # opt=CalcAll B3LYP/6-31G* scf=qc
 ---------------------------------

 -------------------
 Title Card Required
 -------------------
 Symbolic Z-matrix:
 Charge =  0 Multiplicity = 1

 SCF Done:  E(RB3LYP) =  -814.836108393     a.u. after    7 cycles
 SCF Done:  E(RB3LYP) =  -814.861841114     a.u. after   15 cycles
 SCF Done:  E(RB3LYP) =  -814.896937516     a.u. after   15 cycles
 SCF Done:  E(RB3LYP) =  -814.905756337     a.u. after   15 cycles
 SCF Done:  E(RB3LYP) =  -814.908395812     a.u. after    9 cycles
 SCF Done:  E(RB3LYP) =  -814.908961598     a.u. after   11 cycles
 SCF Done:  E(RB3LYP) =  -814.909112320     a.u. after    7 cycles
 SCF Done:  E(RB3LYP) =  -814.909117129     a.u. after    4 cycles
 SCF Done:  E(RB3LYP) =  -814.909117721     a.u. after    2 cycles
 SCF Done:  E(RB3LYP) =  -814.909117786     a.u. after    2 cycles
 Optimization completed.
    -- Stationary point found.
 Normal termination of Gaussian 16 at Sun Aug 23 08:05:53 2020.

 ----------------------------------------------------------------------
 # freq B3LYP/6-31G* scf=qc volume NMR pop=NPA density=current Geom=All
 Check Guess=Read
 ----------------------------------------------------------------------

 Structure from the checkpoint file:  "phosphine_2_conf192.chk"
 -------------------
 Title Card Required
 -------------------
 Charge =  0 Multiplicity = 1

 SCF Done:  E(RB3LYP) =  -814.909117786     a.u. after    1 cycles

      1  C    Isotropic =   176.1686   Anisotropy =    17.7376

      2  C    Isotropic =   166.8746   Anisotropy =    10.9610

      3  C    Isotropic =   158.2980   Anisotropy =    12.2064

      4  C    Isotropic =   167.8774   Anisotropy =    26.4809

      5  H    Isotropic =    31.1980   Anisotropy =     8.0339

      6  H    Isotropic =    30.1167   Anisotropy =     4.0184

      7  P    Isotropic =   386.9590   Anisotropy =    28.5349

      8  C    Isotropic =   160.2171   Anisotropy =    20.1738

      9  H    Isotropic =    30.5503   Anisotropy =     4.5278

     10  H    Isotropic =    31.1179   Anisotropy =     6.0633

     11  C    Isotropic =   158.3119   Anisotropy =    30.8442

     12  C    Isotropic =   161.7149   Anisotropy =    23.5180

     13  C    Isotropic =   173.6367   Anisotropy =    24.4197

     14  C    Isotropic =   161.2327   Anisotropy =    20.0755

     15  H    Isotropic =    30.3764   Anisotropy =     5.5275

     16  H    Isotropic =    30.9544   Anisotropy =     7.4353

     17  C    Isotropic =   164.7805   Anisotropy =    17.5023

     18  C    Isotropic =   164.3199   Anisotropy =    16.7995

     19  C    Isotropic =   175.8806   Anisotropy =    18.0961

     20  H    Isotropic =    31.1680   Anisotropy =     9.4437

     21  H    Isotropic =    31.4552   Anisotropy =     9.2631

     22  H    Isotropic =    30.9499   Anisotropy =     7.1563

     23  H    Isotropic =    30.6771   Anisotropy =     9.8856

     24  H    Isotropic =    30.6044   Anisotropy =     4.3053

     25  H    Isotropic =    30.5134   Anisotropy =     8.8812

     26  H    Isotropic =    30.2871   Anisotropy =     7.4792

     27  H    Isotropic =    30.8818   Anisotropy =     5.2109

     28  H    Isotropic =    30.6063   Anisotropy =     5.5326

     29  H    Isotropic =    30.6892   Anisotropy =     6.0336

     30  H    Isotropic =    30.7479   Anisotropy =     5.6434

     31  H    Isotropic =    31.2056   Anisotropy =     8.0150

     32  H    Isotropic =    31.0622   Anisotropy =    10.3262

     33  H    Isotropic =    31.2411   Anisotropy =     7.6616

     34  H    Isotropic =    30.6380   Anisotropy =     4.4098

     35  H    Isotropic =    30.5825   Anisotropy =     7.4293

     36  H    Isotropic =    30.4701   Anisotropy =     9.1412

     37  H    Isotropic =    30.8334   Anisotropy =     7.5812

     38  H    Isotropic =    31.4573   Anisotropy =     7.2640

     39  H    Isotropic =    31.1586   Anisotropy =    10.5563

     40  H    Isotropic =    30.9521   Anisotropy =     5.6769

  Exact polarizability: 181.562  -0.199 154.543  -0.259  -2.130 124.742
 Approx polarizability: 213.571   0.391 212.228   0.658  -6.094 197.984

                      1                      2                      3
                      A                      A                      A
 Frequencies --     28.8752                32.0508                44.7598
 Red. masses --      2.3709                 3.1683                 3.3599
 Frc consts  --      0.0012                 0.0019                 0.0040
 IR Inten    --      0.0779                 0.0091                 0.0218

                      4                      5                      6
                      A                      A                      A
 Frequencies --     51.9581                62.3350                69.2284
 Red. masses --      3.4350                 1.8191                 2.2162
 Frc consts  --      0.0055                 0.0042                 0.0063
 IR Inten    --      0.0078                 0.0536                 0.0172

                      7                      8                      9
                      A                      A                      A
 Frequencies --    104.9462               125.4621               130.2035
 Red. masses --      2.4552                 2.0207                 2.2711
 Frc consts  --      0.0159                 0.0187                 0.0227
 IR Inten    --      0.0954                 0.0237                 0.0914

                     10                     11                     12
                      A                      A                      A
 Frequencies --    148.7781               163.1934               191.0010
 Red. masses --      1.7556                 3.1689                 2.0377
 Frc consts  --      0.0229                 0.0497                 0.0438
 IR Inten    --      0.0930                 0.2444                 0.1307

                     13                     14                     15
                      A                      A                      A
 Frequencies --    204.1458               216.8948               235.8304
 Red. masses --      1.6688                 1.9291                 1.6588
 Frc consts  --      0.0410                 0.0535                 0.0544
 IR Inten    --      0.0271                 0.1585                 0.0994

                     16                     17                     18
                      A                      A                      A
 Frequencies --    253.8664               261.7713               287.6534
 Red. masses --      1.3487                 1.5503                 1.6280
 Frc consts  --      0.0512                 0.0626                 0.0794
 IR Inten    --      0.0179                 0.0152                 0.0421

                     19                     20                     21
                      A                      A                      A
 Frequencies --    314.0946               342.7186               379.2790
 Red. masses --      2.8879                 3.3854                 2.1114
 Frc consts  --      0.1679                 0.2343                 0.1790
 IR Inten    --      0.1723                 0.2114                 0.2891

                     22                     23                     24
                      A                      A                      A
 Frequencies --    418.6462               439.2949               459.8528
 Red. masses --      2.5291                 2.3399                 2.8820
 Frc consts  --      0.2612                 0.2661                 0.3591
 IR Inten    --      1.9241                 0.4047                 1.9036

                     25                     26                     27
                      A                      A                      A
 Frequencies --    627.2012               683.2741               706.9976
 Red. masses --      3.2376                 1.9311                 2.0144
 Frc consts  --      0.7504                 0.5312                 0.5932
 IR Inten    --      3.4995                 1.0872                 2.0518

                     28                     29                     30
                      A                      A                      A
 Frequencies --    732.9933               738.0699               746.6255
 Red. masses --      2.1120                 1.2001                 1.3332
 Frc consts  --      0.6686                 0.3852                 0.4379
 IR Inten    --      4.6349                10.7177                17.4922

                     31                     32                     33
                      A                      A                      A
 Frequencies --    784.4918               787.3558               801.3445
 Red. masses --      1.2387                 1.4289                 1.6317
 Frc consts  --      0.4492                 0.5219                 0.6173
 IR Inten    --      0.5517                 5.4010                 3.2673

                     34                     35                     36
                      A                      A                      A
 Frequencies --    876.2173               877.6240               899.6422
 Red. masses --      2.4235                 1.8330                 1.3938
 Frc consts  --      1.0963                 0.8318                 0.6647
 IR Inten    --      0.7852                 2.9455                 0.2515

                     37                     38                     39
                      A                      A                      A
 Frequencies --    907.2965               915.6199               933.7143
 Red. masses --      1.7610                 1.3212                 1.4890
 Frc consts  --      0.8541                 0.6526                 0.7648
 IR Inten    --      2.3116                 5.7931                 7.9027

                     40                     41                     42
                      A                      A                      A
 Frequencies --    983.0299               985.6178              1022.7368
 Red. masses --      1.8810                 1.9970                 3.6221
 Frc consts  --      1.0709                 1.1430                 2.2322
 IR Inten    --      3.2381                 4.7987                 1.4665

                     43                     44                     45
                      A                      A                      A
 Frequencies --   1058.8694              1063.0804              1066.5966
 Red. masses --      1.6087                 1.2346                 2.1288
 Frc consts  --      1.0627                 0.8221                 1.4269
 IR Inten    --      0.8012                 4.0614                 1.0345

                     46                     47                     48
                      A                      A                      A
 Frequencies --   1073.1560              1090.0804              1099.4265
 Red. masses --      2.1634                 1.5597                 1.3510
 Frc consts  --      1.4679                 1.0920                 0.9622
 IR Inten    --      1.4072                 0.9909                 5.4560

                     49                     50                     51
                      A                      A                      A
 Frequencies --   1116.6907              1122.2432              1124.2429
 Red. masses --      1.6872                 1.9101                 1.9090
 Frc consts  --      1.2396                 1.4174                 1.4216
 IR Inten    --      0.5316                 1.7258                 4.4879

                     52                     53                     54
                      A                      A                      A
 Frequencies --   1203.8355              1231.8702              1245.4611
 Red. masses --      1.3604                 1.4503                 1.3420
 Frc consts  --      1.1616                 1.2967                 1.2265
 IR Inten    --      2.7756                 5.2747                 5.9103

                     55                     56                     57
                      A                      A                      A
 Frequencies --   1246.7295              1257.5797              1267.8371
 Red. masses --      1.5025                 1.3991                 1.3315
 Frc consts  --      1.3759                 1.3037                 1.2610
 IR Inten    --      0.7333                 1.7762                 1.3550

                     58                     59                     60
                      A                      A                      A
 Frequencies --   1313.2559              1321.6472              1323.8889
 Red. masses --      1.2559                 1.1999                 1.1991
 Frc consts  --      1.2761                 1.2348                 1.2382
 IR Inten    --      1.8055                 0.6827                 0.7010

                     61                     62                     63
                      A                      A                      A
 Frequencies --   1337.2112              1343.1060              1348.6864
 Red. masses --      1.1469                 1.1583                 1.1586
 Frc consts  --      1.2083                 1.2311                 1.2416
 IR Inten    --      3.5409                 5.5722                 1.0080

                     64                     65                     66
                      A                      A                      A
 Frequencies --   1350.5618              1390.2057              1397.7911
 Red. masses --      1.2203                 1.3919                 1.3494
 Frc consts  --      1.3114                 1.5849                 1.5533
 IR Inten    --      1.2397                 0.2734                 6.5209

                     67                     68                     69
                      A                      A                      A
 Frequencies --   1398.6937              1405.4922              1412.4729
 Red. masses --      1.3289                 1.4426                 1.5159
 Frc consts  --      1.5317                 1.6790                 1.7818
 IR Inten    --      7.6184                 6.1467                 1.2499

                     70                     71                     72
                      A                      A                      A
 Frequencies --   1440.6875              1442.1967              1442.8044
 Red. masses --      1.2419                 1.2611                 1.2591
 Frc consts  --      1.5187                 1.5454                 1.5443
 IR Inten    --      1.1076                 4.2005                 6.6118

                     73                     74                     75
                      A                      A                      A
 Frequencies --   1486.3608              1491.7378              1495.0648
 Red. masses --      1.0848                 1.0843                 1.0846
 Frc consts  --      1.4121                 1.4217                 1.4283
 IR Inten    --      4.7423                 0.9250                 2.5765

                     76                     77                     78
                      A                      A                      A
 Frequencies --   1514.3038              1515.4811              1516.4415
 Red. masses --      1.0847                 1.0697                 1.0695
 Frc consts  --      1.4655                 1.4474                 1.4491
 IR Inten    --      1.2134                 0.8053                 1.3812

                     79                     80                     81
                      A                      A                      A
 Frequencies --   1518.6743              1521.5353              1526.1130
 Red. masses --      1.0783                 1.0638                 1.0696
 Frc consts  --      1.4652                 1.4511                 1.4677
 IR Inten    --      3.7690                 2.7592                 0.7564

                     82                     83                     84
                      A                      A                      A
 Frequencies --   1529.7716              1531.4529              1532.3467
 Red. masses --      1.0410                 1.0597                 1.0480
 Frc consts  --      1.4353                 1.4643                 1.4498
 IR Inten    --      5.7858                 4.6572                 6.6884

                     85                     86                     87
                      A                      A                      A
 Frequencies --   1536.7251              1540.0624              1540.4235
 Red. masses --      1.0649                 1.0621                 1.0814
 Frc consts  --      1.4817                 1.4843                 1.5118
 IR Inten    --     10.8329                 0.2365                 3.3070

                     88                     89                     90
                      A                      A                      A
 Frequencies --   3016.2498              3018.7853              3021.7620
 Red. masses --      1.0662                 1.0604                 1.0589
 Frc consts  --      5.7152                 5.6937                 5.6965
 IR Inten    --     34.7576                 0.2066                 0.7886

                     91                     92                     93
                      A                      A                      A
 Frequencies --   3025.0975              3028.2138              3030.2729
 Red. masses --      1.0607                 1.0641                 1.0624
 Frc consts  --      5.7191                 5.7492                 5.7475
 IR Inten    --     37.1476                 4.5162                56.7815

                     94                     95                     96
                      A                      A                      A
 Frequencies --   3031.8677              3036.0495              3041.4200
 Red. masses --      1.0618                 1.0652                 1.0385
 Frc consts  --      5.7504                 5.7851                 5.6597
 IR Inten    --     10.5260                24.2606                29.0004

                     97                     98                     99
                      A                      A                      A
 Frequencies --   3041.9887              3043.7760              3045.7716
 Red. masses --      1.0425                 1.0388                 1.0831
 Frc consts  --      5.6838                 5.6706                 5.9198
 IR Inten    --     26.1465                28.0746                14.6000

                    100                    101                    102
                      A                      A                      A
 Frequencies --   3046.3291              3059.3586              3060.3427
 Red. masses --      1.0665                 1.0989                 1.1010
 Frc consts  --      5.8313                 6.0598                 6.0757
 IR Inten    --     11.2637                29.7233                 8.2090

                    103                    104                    105
                      A                      A                      A
 Frequencies --   3062.2806              3065.3687              3070.1750
 Red. masses --      1.0963                 1.1006                 1.0967
 Frc consts  --      6.0570                 6.0933                 6.0908
 IR Inten    --     29.3121                28.0797                16.8474

                    106                    107                    108
                      A                      A                      A
 Frequencies --   3079.5159              3087.4621              3090.6335
 Red. masses --      1.1045                 1.1008                 1.1010
 Frc consts  --      6.1713                 6.1827                 6.1966
 IR Inten    --     56.8380                16.3776                78.8142

                    109                    110                    111
                      A                      A                      A
 Frequencies --   3106.2779              3106.6435              3107.1567
 Red. masses --      1.1015                 1.1028                 1.1013
 Frc consts  --      6.2623                 6.2708                 6.2644
 IR Inten    --     73.5964                84.6296                 6.5228

                    112                    113                    114
                      A                      A                      A
 Frequencies --   3110.8847              3113.7686              3116.4078
 Red. masses --      1.1020                 1.1014                 1.1015
 Frc consts  --      6.2833                 6.2919                 6.3030
 IR Inten    --     43.6819                54.0024                44.9105

 - Thermochemistry -
 -------------------
 Temperature   298.150 Kelvin.  Pressure   1.00000 Atm.
 Atom     1 has atomic number  6 and mass  12.00000

 Molecular mass:   202.18504 amu.
 Principal axes and moments of inertia in atomic units:
                           1         2         3
     Eigenvalues --  2393.079605658.575437513.37993
           X            1.00000  -0.00138   0.00121
           Y            0.00139   0.99999  -0.00403
           Z           -0.00120   0.00404   0.99999
 This molecule is an asymmetric top.
 Rotational symmetry number  1.
 Warning -- assumption of classical behavior for rotation
           may cause significant error
 Rotational temperatures (Kelvin)      0.03619     0.01531     0.01153
 Rotational constants (GHZ):           0.75415     0.31894     0.24020
 Zero-point vibrational energy     977190.2 (Joules/Mol)
                                  233.55407 (Kcal/Mol)
 Warning -- explicit consideration of  24 degrees of freedom as
           vibrations may cause significant error
 Vibrational temperatures:     41.54    46.11    64.40    74.76    89.69
          (Kelvin)             99.60   150.99   180.51   187.33   214.06
                              234.80   274.81   293.72   312.06   339.31
                              365.26   376.63   413.87   451.91   493.10
                              545.70   602.34   632.05   661.63   902.40
                              983.08  1017.21  1054.61  1061.92  1074.23
                             1128.71  1132.83  1152.96  1260.68  1262.71
                             1294.38  1305.40  1317.37  1343.41  1414.36
                             1418.08  1471.49  1523.48  1529.54  1534.59
                             1544.03  1568.38  1581.83  1606.67  1614.66
                             1617.53  1732.05  1772.39  1791.94  1793.77
                             1809.38  1824.13  1889.48  1901.56  1904.78
                             1923.95  1932.43  1940.46  1943.16  2000.20
                             2011.11  2012.41  2022.19  2032.23  2072.83
                             2075.00  2075.87  2138.54  2146.28  2151.06
                             2178.75  2180.44  2181.82  2185.03  2189.15
                             2195.74  2201.00  2203.42  2204.71  2211.00
                             2215.81  2216.33  4339.71  4343.36  4347.64
                             4352.44  4356.92  4359.89  4362.18  4368.20
                             4375.93  4376.74  4379.31  4382.19  4382.99
                             4401.73  4403.15  4405.94  4410.38  4417.30
                             4430.74  4442.17  4446.73  4469.24  4469.77
                             4470.51  4475.87  4480.02  4483.82

 Zero-point correction=                           0.372192 (Hartree/Particle)
 Thermal correction to Energy=                    0.390754
 Thermal correction to Enthalpy=                  0.391698
 Thermal correction to Gibbs Free Energy=         0.323684
 Sum of electronic and zero-point Energies=           -814.536926
 Sum of electronic and thermal Energies=              -814.518364
 Sum of electronic and thermal Enthalpies=            -814.517420
 Sum of electronic and thermal Free Energies=         -814.585434

                     E (Thermal)             CV                S
                      KCal/Mol        Cal/Mol-Kelvin    Cal/Mol-Kelvin
 Total                  245.202             66.310            143.148
 Electronic               0.000              0.000              0.000
 Translational            0.889              2.981             41.817
 Rotational               0.889              2.981             32.986
 Vibrational            243.424             60.348             68.345
 Vibration     1          0.593              1.984              5.905
 Vibration     2          0.594              1.983              5.698
 Vibration     3          0.595              1.979              5.036
 Vibration     4          0.596              1.977              4.741
 Vibration     5          0.597              1.972              4.382
 Vibration     6          0.598              1.969              4.175
 Vibration     7          0.605              1.945              3.360
 Vibration     8          0.610              1.928              3.014
 Vibration     9          0.612              1.923              2.943
 Vibration    10          0.618              1.904              2.688
 Vibration    11          0.623              1.888              2.512
 Vibration    12          0.634              1.852              2.218
 Vibration    13          0.640              1.834              2.095
 Vibration    14          0.646              1.815              1.985
 Vibration    15          0.655              1.786              1.834
 Vibration    16          0.665              1.756              1.704
 Vibration    17          0.669              1.743              1.650
 Vibration    18          0.685              1.697              1.488
 Vibration    19          0.702              1.647              1.341
 Vibration    20          0.722              1.590              1.199
 Vibration    21          0.749              1.514              1.042
 Vibration    22          0.782              1.430              0.897
 Vibration    23          0.799              1.384              0.829
 Vibration    24          0.818              1.339              0.767

 Optimization completed.
    -- Stationary point found.
 Normal termination of Gaussian 16 at Sun Aug 23 08:13:22 2020.
 Gaussian 16:  ES64L-G16RevA.03 25-Dec-2016

 ----------------------------------------------------------------------
 # TD(NStates=10, Root=1) B3LYP/6-31G* scf=qc volume pop=NPA density=cu
 rrent Geom=AllCheck Guess=Read
 ----------------------------------------------------------------------

 Structure from the checkpoint file:  "phosphine_2_conf193.chk"
 -------------------
 Title Card Required
 -------------------
 Charge =  0 Multiplicity = 1

                         Standard orientation:
 ---------------------------------------------------------------------
 Center     Atomic      Atomic             Coordinates (Angstroms)
 Number     Number       Type             X           Y           Z
 ---------------------------------------------------------------------
      1          6           0        3.256739    2.111415   -0.613569
      2          6           0        2.217475    2.621334    0.391663
      3          6           0        0.794880    2.754688   -0.176355
      4          6           0        0.102910    1.439855   -0.583511
      5          1           0       -0.860298    1.689582   -1.047238
      6          1           0        0.679506    0.910961   -1.352216
      7         15           0       -0.313959    0.301775    0.862935
      8          6           0       -1.724729   -0.680641    0.101255
      9          1           0       -1.511652   -0.930727   -0.947029
     10          1           0       -1.778782   -1.632968    0.647213
     11          6           0       -3.077381    0.040475    0.204196
     12          6           0       -4.239265   -0.766801   -0.392436
     13          6           0       -5.588399   -0.048447   -0.285278
     14          6           0        1.062115   -0.985222    0.831244
     15          1           0        1.972227   -0.458850    1.144224
     16          1           0        0.825825   -1.676006    1.653702
     17          6           0        1.322143   -1.793115   -0.449731
     18          6           0        2.427358   -2.856867   -0.303533
     19          6           0        3.832783   -2.292004   -0.067211
     20          1           0        4.257228    2.083359   -0.166713
     21          1           0        3.304623    2.763848   -1.494643
     22          1           0        3.027579    1.099011   -0.965355
     23          1           0        2.534476    3.607031    0.758076
     24          1           0        2.200821    1.967411    1.274613
     25          1           0        0.829537    3.417592   -1.053994
     26          1           0        0.166612    3.261926    0.567463
     27          1           0       -3.022311    1.013654   -0.305677
     28          1           0       -3.290489    0.264685    1.258375
     29          1           0       -4.300166   -1.739992    0.115259
     30          1           0       -4.023527   -0.987632   -1.447562
     31          1           0       -5.847134    0.154660    0.761154
     32          1           0       -6.397021   -0.648616   -0.717946
     33          1           0       -5.568570    0.913267   -0.812770
     34          1           0        1.588926   -1.117599   -1.274433
     35          1           0        0.397201   -2.297794   -0.755243
     36          1           0        2.439813   -3.470559   -1.214778
     37          1           0        2.163946   -3.538579    0.517896
     38          1           0        4.124829   -1.608938   -0.874979
     39          1           0        4.577108   -3.095547   -0.027481
     40          1           0        3.899317   -1.737815    0.875647
 ---------------------------------------------------------------------

 SCF Done:  E(RB3LYP) =  -814.909117786     a.u. after    1 cycles

 Excitation energies and oscillator strengths:

 Excited State   1:      Singlet-A      6.5023 eV  190.68 nm  f=0.1111  <S**2>=0.000
      57 -> 58         0.69574
 This state for optimization and/or second-order correction.
 Total Energy, E(TD-HF/TD-DFT) =  -814.670163333
 Copying the excited state density for this state as the 1-particle RhoCI density.

 Excited State   2:      Singlet-A      6.6681 eV  185.94 nm  f=0.1152  <S**2>=0.000
      57 -> 59         0.69510

 Excited State   3:      Singlet-A      6.8276 eV  181.59 nm  f=0.0189  <S**2>=0.000
      57 -> 60         0.70116

 Excited State   4:      Singlet-A      7.4173 eV  167.16 nm  f=0.0067  <S**2>=0.000
      57 -> 61         0.68319
      57 -> 64        -0.10430

 Excited State   5:      Singlet-A      7.7390 eV  160.21 nm  f=0.0367  <S**2>=0.000
      57 -> 62         0.67590
      57 -> 64         0.14593

 Excited State   6:      Singlet-A      7.8438 eV  158.07 nm  f=0.0181  <S**2>=0.000
      57 -> 63         0.65874
      57 -> 64        -0.17470
      57 -> 65         0.14191

 Excited State   7:      Singlet-A      8.0199 eV  154.60 nm  f=0.0005  <S**2>=0.000
      57 -> 61         0.10908
      57 -> 62        -0.15893
      57 -> 63         0.16387
      57 -> 64         0.64911

 Excited State   8:      Singlet-A      8.1677 eV  151.80 nm  f=0.0025  <S**2>=0.000
      55 -> 58         0.10751
      57 -> 63        -0.12880
      57 -> 65         0.67113

 Excited State   9:      Singlet-A      8.3185 eV  149.05 nm  f=0.0010  <S**2>=0.000
      55 -> 58        -0.40874
      55 -> 59        -0.11631
      56 -> 58        -0.31169
      56 -> 59         0.44262

 Excited State  10:      Singlet-A      8.5038 eV  145.80 nm  f=0.0115  <S**2>=0.000
      55 -> 58        -0.17601
      55 -> 59        -0.25608
      56 -> 58         0.32971
      57 -> 66         0.48179
      57 -> 67         0.19713

 The electronic state is 1-A.
 Alpha  occ. eigenvalues --  -77.06327 -10.18119 -10.18060 -10.18053 -10.17975
 Alpha  occ. eigenvalues --  -10.17910 -10.17896 -10.17844 -10.17776 -10.17685
 Alpha  occ. eigenvalues --  -10.17264 -10.17144 -10.17133  -6.53092  -4.69350
 Alpha  occ. eigenvalues --   -4.69338  -4.68843  -0.79949  -0.78923  -0.78700
 Alpha  occ. eigenvalues --   -0.74062  -0.71430  -0.71376  -0.65685  -0.63591
 Alpha  occ. eigenvalues --   -0.62483  -0.57734  -0.57351  -0.56444  -0.51141
 Alpha  occ. eigenvalues --   -0.46890  -0.46299  -0.45399  -0.44916  -0.43912
 Alpha  occ. eigenvalues --   -0.42349  -0.41856  -0.41149  -0.40123  -0.39002
 Alpha  occ. eigenvalues --   -0.38651  -0.38210  -0.37766  -0.36616  -0.36003
 Alpha  occ. eigenvalues --   -0.35218  -0.34092  -0.33471  -0.33037  -0.32750
 Alpha  occ. eigenvalues --   -0.32549  -0.32243  -0.32016  -0.31828  -0.28911
 Alpha  occ. eigenvalues --   -0.28621  -0.21107
 Alpha virt. eigenvalues --    0.05812   0.06180   0.06948   0.09130   0.10374
 Alpha virt. eigenvalues --    0.10816   0.11042   0.12019   0.13012   0.13587
 Alpha virt. eigenvalues --    0.14338   0.14835   0.15025   0.15284   0.16381

 Mulliken charges:
               1
     1  C   -0.448757
     2  C   -0.218512
     3  C   -0.253814
     4  C   -0.428414
     5  H    0.166999
     6  H    0.180351
     7  P    0.320786
     8  C   -0.433060
     9  H    0.166101
    10  H    0.144473
    11  C   -0.233246
    12  C   -0.250941
    13  C   -0.441619
    14  C   -0.385777
    15  H    0.145152
    16  H    0.128647
    17  C   -0.270004
    18  C   -0.242047
    19  C   -0.435142
    20  H    0.142659
    21  H    0.132799
    22  H    0.134130
    23  H    0.115421
    24  H    0.098909
    25  H    0.121562
    26  H    0.145676
    27  H    0.131820
    28  H    0.135513
    29  H    0.129601
    30  H    0.127299
    31  H    0.142960
    32  H    0.142802
    33  H    0.141323
    34  H    0.135705
    35  H    0.137900
    36  H    0.128489
    37  H    0.129743
    38  H    0.137549
    39  H    0.137371
    40  H    0.139595
 Sum of Mulliken charges =   0.00000

 Dipole moment (field-independent basis, Debye):
    X=             -1.0794    Y=             -0.7084    Z=             -1.0541  Tot=              1.6667
 Quadrupole moment (field-independent basis, Debye-Ang):
   XX=            -98.8572   YY=            -95.8520   ZZ=            -95.3492
   XY=             -0.5022   XZ=             -0.9344   YZ=             -1.4811

 Summary of Natural Population Analysis:

                                       Natural Population
                Natural  -----------------------------------------------
    Atom  No    Charge         Core      Valence    Rydberg      Total
 -----------------------------------------------------------------------
      C    1   -0.68026      1.99946     4.67165    0.00915     6.68026
      C    2   -0.46240      1.99934     4.45094    0.01212     6.46240
      C    3   -0.45946      1.99932     4.44588    0.01427     6.45946
      C    4   -0.73755      1.99928     4.72188    0.01639     6.73755
      H    5    0.23883      0.00000     0.75586    0.00532     0.76117
      H    6    0.25246      0.00000     0.74348    0.00406     0.74754
      P    7    1.01338      9.99768     3.87534    0.11360    13.98662
      C    8   -0.83243      1.99932     4.80948    0.02363     6.83243
      H    9    0.25516      0.00000     0.74215    0.00270     0.74484
      H   10    0.23841      0.00000     0.75807    0.00352     0.76159
      C   11   -0.46147      1.99933     4.44798    0.01416     6.46147
      C   12   -0.45538      1.99935     4.44445    0.01158     6.45538
      C   13   -0.67396      1.99946     4.66688    0.00761     6.67396
      C   14   -0.84604      1.99930     4.82573    0.02102     6.84604
      H   15    0.24050      0.00000     0.74571    0.01379     0.75950
      H   16    0.23504      0.00000     0.75991    0.00505     0.76496
      C   17   -0.45434      1.99929     4.44213    0.01292     6.45434
      C   18   -0.45050      1.99934     4.43961    0.01155     6.45050
      C   19   -0.68009      1.99946     4.67281    0.00782     6.68009
      H   20    0.23349      0.00000     0.76540    0.00110     0.76651
      H   21    0.21940      0.00000     0.77875    0.00185     0.78060
      H   22    0.21062      0.00000     0.78590    0.00348     0.78938
      H   23    0.22479      0.00000     0.77132    0.00389     0.77521
      H   24    0.19794      0.00000     0.78373    0.01833     0.80206
      H   25    0.22616      0.00000     0.76885    0.00500     0.77384
      H   26    0.23936      0.00000     0.75900    0.00164     0.76064
      H   27    0.22483      0.00000     0.77285    0.00231     0.77517
      H   28    0.23046      0.00000     0.76647    0.00307     0.76954
      H   29    0.22613      0.00000     0.77126    0.00260     0.77387
      H   30    0.22465      0.00000     0.77342    0.00193     0.77535
      H   31    0.22509      0.00000     0.77383    0.00108     0.77491
      H   32    0.23215      0.00000     0.76703    0.00082     0.76785
      H   33    0.22401      0.00000     0.77490    0.00109     0.77599
      H   34    0.22122      0.00000     0.77651    0.00226     0.77878
      H   35    0.23197      0.00000     0.76616    0.00187     0.76803
      H   36    0.23093      0.00000     0.76602    0.00305     0.76907
      H   37    0.22676      0.00000     0.77015    0.00309     0.77324
      H   38    0.22002      0.00000     0.77685    0.00313     0.77998
      H   39    0.23002      0.00000     0.76811    0.00187     0.76998
      H   40    0.22011      0.00000     0.77535    0.00454     0.77989
 =======================================================================
   * Total *   -0.00000     33.98993    79.63182    0.37825   114.00000

 Normal termination of Gaussian 16 at Sun Aug 23 08:22:44 2020.
