 Gaussian 16, Revision A.03,

 ---------------------------------
 # opt=CalcAll B3LYP/6-31G* scf=qc
 ---------------------------------

 -------------------
 Title Card Required
 -------------------
 Symbolic Z-matrix:
 Charge =  0 Multiplicity = 1

 SCF Done:  E(RB3LYP) =  -1333.94861123     a.u. after    7 cycles
 SCF Done:  E(RB3LYP) =  -1333.96261636     a.u. after   15 cycles
 SCF Done:  E(RB3LYP) =  -1333.98044370     a.u. after   19 cycles
 SCF Done:  E(RB3LYP) =  -1333.99101132     a.u. after   15 cycles
 SCF Done:  E(RB3LYP) =  -1333.99441951     a.u. after   19 cycles
 SCF Done:  E(RB3LYP) =  -1333.99730459     a.u. after   13 cycles
 SCF Done:  E(RB3LYP) =  -1333.99857301     a.u. after   17 cycles
 SCF Done:  E(RB3LYP) =  -1333.99889437     a.u. after   17 cycles
 SCF Done:  E(RB3LYP) =  -1333.99897492     a.u. after    7 cycles
 SCF Done:  E(RB3LYP) =  -1333.99897312     a.u. after    4 cycles
 SCF Done:  E(RB3LYP) =  -1333.99898194     a.u. after    2 cycles
 SCF Done:  E(RB3LYP) =  -1333.99897810     a.u. after    2 cycles
 SCF Done:  E(RB3LYP) =  -1333.99897707     a.u. after    4 cycles
 SCF Done:  E(RB3LYP) =  -1333.99897850     a.u. after    3 cycles
 SCF Done:  E(RB3LYP) =  -1333.99897624     a.u. after    2 cycles
 SCF Done:  E(RB3LYP) =  -1333.99897830     a.u. after    2 cycles
 SCF Done:  E(RB3LYP) =  -1333.99897884     a.u. after    2 cycles
 SCF Done:  E(RB3LYP) =  -1333.99897814     a.u. after    3 cycles
 Optimization completed on the basis of negligible forces.
    -- Stationary point found.
 Normal termination of Gaussian 16 at Sun Aug 23 17:12:31 2020.

 ----------------------------------------------------------------------
 # freq B3LYP/6-31G* scf=qc volume NMR pop=NPA density=current Geom=All
 Check Guess=Read
 ----------------------------------------------------------------------

 Structure from the checkpoint file:  "phosphine_5_conf172.chk"
 -------------------
 Title Card Required
 -------------------
 Charge =  0 Multiplicity = 1

 SCF Done:  E(RB3LYP) =  -1333.99897814     a.u. after    1 cycles

      1  C    Isotropic =    79.9218   Anisotropy =   137.4286

      2  C    Isotropic =    59.0457   Anisotropy =   162.8132

      3  C    Isotropic =    61.6053   Anisotropy =   173.4668

      4  C    Isotropic =    60.7291   Anisotropy =   171.8436

      5  C    Isotropic =    80.0629   Anisotropy =   136.7115

      6  C    Isotropic =    32.6718   Anisotropy =    98.8097

      7  F    Isotropic =   295.8292   Anisotropy =   113.0584

      8  P    Isotropic =   366.1414   Anisotropy =    39.7898

      9  C    Isotropic =    61.5744   Anisotropy =   173.5241

     10  C    Isotropic =    60.7120   Anisotropy =   171.8494

     11  C    Isotropic =    80.0730   Anisotropy =   136.7178

     12  C    Isotropic =    32.6727   Anisotropy =    98.8185

     13  C    Isotropic =    79.9349   Anisotropy =   137.4309

     14  C    Isotropic =    59.0499   Anisotropy =   162.7710

     15  F    Isotropic =   295.8027   Anisotropy =   113.0034

     16  C    Isotropic =    61.6426   Anisotropy =   173.4842

     17  C    Isotropic =    59.0149   Anisotropy =   162.7573

     18  C    Isotropic =    79.9358   Anisotropy =   137.4301

     19  C    Isotropic =    32.6566   Anisotropy =    98.8354

     20  C    Isotropic =    80.0691   Anisotropy =   136.7310

     21  C    Isotropic =    60.6846   Anisotropy =   171.9118

     22  F    Isotropic =   295.7712   Anisotropy =   113.0638

     23  H    Isotropic =    25.3568   Anisotropy =     4.2628

     24  H    Isotropic =    24.6207   Anisotropy =     8.9295

     25  H    Isotropic =    25.3662   Anisotropy =    12.0259

     26  H    Isotropic =    25.4668   Anisotropy =     5.7356

     27  H    Isotropic =    25.3668   Anisotropy =    12.0195

     28  H    Isotropic =    25.4648   Anisotropy =     5.7394

     29  H    Isotropic =    25.3604   Anisotropy =     4.2565

     30  H    Isotropic =    24.6214   Anisotropy =     8.9196

     31  H    Isotropic =    24.6179   Anisotropy =     8.9110

     32  H    Isotropic =    25.3567   Anisotropy =     4.2587

     33  H    Isotropic =    25.4659   Anisotropy =     5.7373

     34  H    Isotropic =    25.3632   Anisotropy =    12.0104

  Exact polarizability: 226.236   0.089 226.075   0.085  -0.038 167.743
 Approx polarizability: 337.907   0.195 337.640   0.191  -0.079 314.910

                      1                      2                      3
                      A                      A                      A
 Frequencies --     24.5788                25.2342                37.4924
 Red. masses --      4.1085                 4.1072                 8.8765
 Frc consts  --      0.0015                 0.0015                 0.0074
 IR Inten    --      0.2493                 0.2461                 0.0998

                      4                      5                      6
                      A                      A                      A
 Frequencies --     37.6032                40.7178                50.5279
 Red. masses --      8.8056                 3.7439                 9.9523
 Frc consts  --      0.0073                 0.0037                 0.0150
 IR Inten    --      0.1040                 0.0061                 0.1144

                      7                      8                      9
                      A                      A                      A
 Frequencies --    133.1109               145.4635               145.8089
 Red. masses --      8.0537                 8.3700                 8.3743
 Frc consts  --      0.0841                 0.1043                 0.1049
 IR Inten    --      0.0229                 0.5193                 0.5138

                     10                     11                     12
                      A                      A                      A
 Frequencies --    208.9601               219.0321               219.1713
 Red. masses --      8.0464                 6.9873                 6.9902
 Frc consts  --      0.2070                 0.1975                 0.1978
 IR Inten    --      0.2910                 0.5253                 0.5273

                     13                     14                     15
                      A                      A                      A
 Frequencies --    307.9399               336.0187               336.1532
 Red. masses --      8.4331                 8.3053                 8.3097
 Frc consts  --      0.4712                 0.5525                 0.5532
 IR Inten    --      1.0291                 0.0442                 0.0447

                     16                     17                     18
                      A                      A                      A
 Frequencies --    397.1944               404.1037               404.1621
 Red. masses --      7.7324                 8.0356                 8.0048
 Frc consts  --      0.7187                 0.7731                 0.7704
 IR Inten    --      0.3062                10.0692                10.0967

                     19                     20                     21
                      A                      A                      A
 Frequencies --    420.6739               420.7762               424.7234
 Red. masses --      3.2819                 3.2786                 3.1352
 Frc consts  --      0.3422                 0.3420                 0.3332
 IR Inten    --      1.1097                 1.1334                 0.0266

                     22                     23                     24
                      A                      A                      A
 Frequencies --    435.0580               435.1163               463.5292
 Red. masses --      6.1570                 6.1467                 6.6442
 Frc consts  --      0.6866                 0.6857                 0.8411
 IR Inten    --     19.0103                19.0187                 7.3770

                     25                     26                     27
                      A                      A                      A
 Frequencies --    533.0720               533.2348               535.6299
 Red. masses --      2.8104                 2.8109                 2.9069
 Frc consts  --      0.4705                 0.4709                 0.4914
 IR Inten    --     21.8171                21.8678                13.4932

                     28                     29                     30
                      A                      A                      A
 Frequencies --    608.0683               629.9817               630.0291
 Red. masses --      7.9086                 7.8301                 7.8309
 Frc consts  --      1.7229                 1.8309                 1.8314
 IR Inten    --      0.0089                 0.0371                 0.0387

                     31                     32                     33
                      A                      A                      A
 Frequencies --    648.2099               648.3692               648.4103
 Red. masses --      7.2766                 7.3783                 7.3795
 Frc consts  --      1.8014                 1.8275                 1.8280
 IR Inten    --      0.0048                 0.1270                 0.1284

                     34                     35                     36
                      A                      A                      A
 Frequencies --    715.2048               715.6945               715.8012
 Red. masses --      4.8110                 4.8279                 4.8311
 Frc consts  --      1.4499                 1.4570                 1.4584
 IR Inten    --      1.0367                 3.9749                 3.9554

                     37                     38                     39
                      A                      A                      A
 Frequencies --    835.7113               835.8040               836.8210
 Red. masses --      1.2622                 1.2621                 1.3276
 Frc consts  --      0.5194                 0.5195                 0.5478
 IR Inten    --      0.5262                 0.5123                11.3284

                     40                     41                     42
                      A                      A                      A
 Frequencies --    839.5318               839.5995               839.7869
 Red. masses --      3.2344                 3.3001                 4.0068
 Frc consts  --      1.3431                 1.3706                 1.6649
 IR Inten    --     62.0786                60.8581                19.0050

                     43                     44                     45
                      A                      A                      A
 Frequencies --    843.6247               843.6973               844.0902
 Red. masses --      1.9836                 2.0000                 1.6746
 Frc consts  --      0.8317                 0.8388                 0.7030
 IR Inten    --     10.0326                 9.9834                12.2980

                     46                     47                     48
                      A                      A                      A
 Frequencies --    958.5854               958.7283               959.8645
 Red. masses --      1.2560                 1.2560                 1.2588
 Frc consts  --      0.6800                 0.6802                 0.6833
 IR Inten    --      0.1659                 0.1655                 0.3250

                     49                     50                     51
                      A                      A                      A
 Frequencies --    969.8528               970.0150               973.4669
 Red. masses --      1.3355                 1.3351                 1.3194
 Frc consts  --      0.7401                 0.7402                 0.7367
 IR Inten    --      0.0324                 0.0334                 0.3066

                     52                     53                     54
                      A                      A                      A
 Frequencies --   1034.7363              1034.7862              1035.1970
 Red. masses --      3.0281                 3.0324                 3.0236
 Frc consts  --      1.9102                 1.9131                 1.9091
 IR Inten    --      7.9838                 7.9094                 0.0911

                     55                     56                     57
                      A                      A                      A
 Frequencies --   1102.8906              1103.1489              1108.7043
 Red. masses --      3.6679                 3.6692                 3.5554
 Frc consts  --      2.6286                 2.6308                 2.5750
 IR Inten    --     19.2250                19.2504                 1.9154

                     58                     59                     60
                      A                      A                      A
 Frequencies --   1127.5924              1127.7744              1127.9120
 Red. masses --      1.3305                 1.3305                 1.3295
 Frc consts  --      0.9967                 0.9971                 0.9965
 IR Inten    --      1.1603                 1.3364                 6.4922

                     61                     62                     63
                      A                      A                      A
 Frequencies --   1195.3012              1195.6495              1199.4707
 Red. masses --      1.1838                 1.1854                 1.1800
 Frc consts  --      0.9965                 0.9984                 1.0003
 IR Inten    --     60.5913                61.2348                 2.5348

                     64                     65                     66
                      A                      A                      A
 Frequencies --   1285.3513              1285.4925              1286.1867
 Red. masses --      3.7536                 3.7439                 3.7867
 Frc consts  --      3.6538                 3.6451                 3.6908
 IR Inten    --    166.9982               166.7533                38.8672

                     67                     68                     69
                      A                      A                      A
 Frequencies --   1324.2133              1327.4724              1327.7773
 Red. masses --      2.7480                 2.2425                 2.3409
 Frc consts  --      2.8392                 2.3283                 2.4315
 IR Inten    --      8.8166                 3.9115                 3.8105

                     70                     71                     72
                      A                      A                      A
 Frequencies --   1336.7639              1336.9275              1337.1922
 Red. masses --      2.3075                 2.1789                 1.9617
 Frc consts  --      2.4294                 2.2946                 2.0667
 IR Inten    --      0.3521                 0.3936                 0.8310

                     73                     74                     75
                      A                      A                      A
 Frequencies --   1437.9775              1438.1511              1438.2401
 Red. masses --      2.9839                 2.9928                 2.9856
 Frc consts  --      3.6353                 3.6470                 3.6387
 IR Inten    --      7.2490                 2.3256                 2.5529

                     76                     77                     78
                      A                      A                      A
 Frequencies --   1545.6226              1545.7401              1546.5334
 Red. masses --      2.4074                 2.4039                 2.4442
 Frc consts  --      3.3885                 3.3840                 3.4443
 IR Inten    --    116.4913               116.5909                24.2645

                     79                     80                     81
                      A                      A                      A
 Frequencies --   1633.9705              1633.9830              1634.0321
 Red. masses --      6.9632                 6.9678                 6.9577
 Frc consts  --     10.9534                10.9607                10.9456
 IR Inten    --     10.4740                11.3632                12.9517

                     82                     83                     84
                      A                      A                      A
 Frequencies --   1653.5563              1653.5691              1654.4105
 Red. masses --      5.8049                 5.8070                 5.8773
 Frc consts  --      9.3516                 9.3550                 9.4780
 IR Inten    --     82.6115                82.6944                22.5558

                     85                     86                     87
                      A                      A                      A
 Frequencies --   3188.7428              3188.9471              3188.9843
 Red. masses --      1.0892                 1.0892                 1.0892
 Frc consts  --      6.5253                 6.5262                 6.5260
 IR Inten    --      5.0111                 5.4109                 2.9719

                     88                     89                     90
                      A                      A                      A
 Frequencies --   3205.6338              3205.6777              3206.3276
 Red. masses --      1.0878                 1.0878                 1.0879
 Frc consts  --      6.5862                 6.5864                 6.5896
 IR Inten    --      1.9840                 2.0042                 0.3811

                     91                     92                     93
                      A                      A                      A
 Frequencies --   3221.8762              3221.8871              3222.1238
 Red. masses --      1.0942                 1.0942                 1.0941
 Frc consts  --      6.6921                 6.6922                 6.6924
 IR Inten    --      3.1801                 3.3712                11.9813

                     94                     95                     96
                      A                      A                      A
 Frequencies --   3222.5968              3222.6662              3222.8711
 Red. masses --      1.0936                 1.0936                 1.0939
 Frc consts  --      6.6917                 6.6920                 6.6943
 IR Inten    --     12.0459                11.7559                 0.4980

 - Thermochemistry -
 -------------------
 Temperature   298.150 Kelvin.  Pressure   1.00000 Atm.
 Atom     1 has atomic number  6 and mass  12.00000

 Molecular mass:   316.06287 amu.
 Principal axes and moments of inertia in atomic units:
                           1         2         3
     Eigenvalues --  8314.286148322.34579**********
           X            0.99976   0.02192   0.00002
           Y           -0.02192   0.99976  -0.00002
           Z           -0.00002   0.00002   1.00000
 This molecule is an asymmetric top.
 Rotational symmetry number  1.
 Warning -- assumption of classical behavior for rotation
           may cause significant error
 Rotational temperatures (Kelvin)      0.01042     0.01041     0.00597
 Rotational constants (GHZ):           0.21707     0.21685     0.12430
 Zero-point vibrational energy     655306.5 (Joules/Mol)
                                  156.62202 (Kcal/Mol)
 Warning -- explicit consideration of  28 degrees of freedom as
           vibrations may cause significant error
 Vibrational temperatures:     35.36    36.31    53.94    54.10    58.58
          (Kelvin)             72.70   191.52   209.29   209.79   300.65
                              315.14   315.34   443.06   483.46   483.65
                              571.47   581.42   581.50   605.26   605.40
                              611.08   625.95   626.04   666.92   766.97
                              767.21   770.65   874.87   906.40   906.47
                              932.63   932.86   932.92  1029.02  1029.72
                             1029.88  1202.40  1202.54  1204.00  1207.90
                             1208.00  1208.27  1213.79  1213.89  1214.46
                             1379.19  1379.40  1381.03  1395.40  1395.64
                             1400.60  1488.75  1488.83  1489.42  1586.81
                             1587.19  1595.18  1622.35  1622.62  1622.81
                             1719.77  1720.27  1725.77  1849.33  1849.54
                             1850.54  1905.25  1909.94  1910.38  1923.31
                             1923.54  1923.92  2068.93  2069.18  2069.31
                             2223.81  2223.98  2225.12  2350.92  2350.94
                             2351.01  2379.10  2379.12  2380.33  4587.89
                             4588.18  4588.24  4612.19  4612.26  4613.19
                             4635.56  4635.58  4635.92  4636.60  4636.70
                             4636.99

 Zero-point correction=                           0.249593 (Hartree/Particle)
 Thermal correction to Energy=                    0.268018
 Thermal correction to Enthalpy=                  0.268962
 Thermal correction to Gibbs Free Energy=         0.199593
 Sum of electronic and zero-point Energies=          -1333.749385
 Sum of electronic and thermal Energies=             -1333.730960
 Sum of electronic and thermal Enthalpies=           -1333.730016
 Sum of electronic and thermal Free Energies=        -1333.799386

                     E (Thermal)             CV                S
                      KCal/Mol        Cal/Mol-Kelvin    Cal/Mol-Kelvin
 Total                  168.184             71.393            146.001
 Electronic               0.000              0.000              0.000
 Translational            0.889              2.981             43.148
 Rotational               0.889              2.981             35.262
 Vibrational            166.407             65.432             67.591
 Vibration     1          0.593              1.985              6.225
 Vibration     2          0.593              1.985              6.173
 Vibration     3          0.594              1.982              5.387
 Vibration     4          0.594              1.982              5.382
 Vibration     5          0.594              1.981              5.224
 Vibration     6          0.595              1.977              4.797
 Vibration     7          0.613              1.920              2.901
 Vibration     8          0.617              1.908              2.731
 Vibration     9          0.617              1.907              2.726
 Vibration    10          0.642              1.827              2.053
 Vibration    11          0.647              1.812              1.967
 Vibration    12          0.647              1.812              1.966
 Vibration    13          0.698              1.659              1.373
 Vibration    14          0.717              1.604              1.231
 Vibration    15          0.717              1.603              1.230
 Vibration    16          0.764              1.476              0.973
 Vibration    17          0.769              1.461              0.948
 Vibration    18          0.769              1.461              0.947
 Vibration    19          0.783              1.425              0.890
 Vibration    20          0.783              1.425              0.889
 Vibration    21          0.787              1.416              0.876
 Vibration    22          0.796              1.394              0.842
 Vibration    23          0.796              1.394              0.842
 Vibration    24          0.821              1.331              0.756
 Vibration    25          0.888              1.177              0.580
 Vibration    26          0.888              1.176              0.580
 Vibration    27          0.891              1.171              0.575
 Vibration    28          0.967              1.015              0.436

 Optimization completed.
    -- Stationary point found.
 Normal termination of Gaussian 16 at Sun Aug 23 17:26:09 2020.
 Gaussian 16:  ES64L-G16RevA.03 25-Dec-2016

 ----------------------------------------------------------------------
 # TD(NStates=10, Root=1) B3LYP/6-31G* scf=qc volume pop=NPA density=cu
 rrent Geom=AllCheck Guess=Read
 ----------------------------------------------------------------------

 Structure from the checkpoint file:  "phosphine_5_conf173.chk"
 -------------------
 Title Card Required
 -------------------
 Charge =  0 Multiplicity = 1

                         Standard orientation:
 ---------------------------------------------------------------------
 Center     Atomic      Atomic             Coordinates (Angstroms)
 Number     Number       Type             X           Y           Z
 ---------------------------------------------------------------------
      1          6           0       -3.792357    1.434528    0.697608
      2          6           0       -2.665564    0.798198    1.215022
      3          6           0       -1.418186    0.882009    0.571882
      4          6           0       -1.324038    1.646692   -0.601784
      5          6           0       -2.439426    2.300155   -1.127700
      6          6           0       -3.657251    2.178757   -0.469179
      7          9           0       -4.738966    2.807683   -0.972512
      8         15           0        0.000030    0.000807    1.374917
      9          6           0       -0.054583   -1.668059    0.572084
     10          6           0       -0.762070   -1.967696   -0.602974
     11          6           0       -0.770791   -3.260168   -1.129366
     12          6           0       -0.059050   -4.255136   -0.469829
     13          6           0        0.651144   -4.001194    0.698348
     14          6           0        0.639394   -2.707329    1.216159
     15          9           0       -0.063305   -5.506227   -0.973571
     16          6           0        1.472625    0.787454    0.571682
     17          6           0        2.028853    1.905247    1.217941
     18          6           0        3.144109    2.561485    0.700291
     19          6           0        3.716369    2.075389   -0.470047
     20          6           0        3.207265    0.964393   -1.131922
     21          6           0        2.083132    0.326534   -0.605586
     22          9           0        4.802554    2.696283   -0.973698
     23          1           0       -4.759013    1.372496    1.186771
     24          1           0       -2.756945    0.230135    2.137581
     25          1           0       -0.370198    1.741144   -1.111530
     26          1           0       -2.376006    2.896618   -2.032228
     27          1           0       -1.318901   -1.187916   -1.113320
     28          1           0       -1.317641   -3.502572   -2.034989
     29          1           0        1.186373   -4.808098    1.188222
     30          1           0        1.175587   -2.503298    2.139751
     31          1           0        1.586116    2.265917    2.143170
     32          1           0        3.577794    3.426227    1.191911
     33          1           0        3.688594    0.613498   -2.039196
     34          1           0        1.683790   -0.543470   -1.117646
 ---------------------------------------------------------------------

 SCF Done:  E(RB3LYP) =  -1333.99897814     a.u. after    1 cycles

 Excitation energies and oscillator strengths:

 Excited State   1:      Singlet-A      4.5732 eV  271.11 nm  f=0.1353  <S**2>=0.000
      81 -> 82         0.69384
 This state for optimization and/or second-order correction.
 Total Energy, E(TD-HF/TD-DFT) =  -1333.83091682
 Copying the excited state density for this state as the 1-particle RhoCI density.

 Excited State   2:      Singlet-A      4.5756 eV  270.97 nm  f=0.1356  <S**2>=0.000
      81 -> 83         0.69333

 Excited State   3:      Singlet-A      4.5862 eV  270.34 nm  f=0.0094  <S**2>=0.000
      81 -> 84         0.68881

 Excited State   4:      Singlet-A      4.9052 eV  252.76 nm  f=0.0018  <S**2>=0.000
      81 -> 85         0.67603

 Excited State   5:      Singlet-A      4.9063 eV  252.70 nm  f=0.0017  <S**2>=0.000
      81 -> 86         0.67577

 Excited State   6:      Singlet-A      5.2393 eV  236.64 nm  f=0.0075  <S**2>=0.000
      79 -> 82         0.10377
      80 -> 83         0.10430
      81 -> 87         0.67231

 Excited State   7:      Singlet-A      5.4169 eV  228.88 nm  f=0.0000  <S**2>=0.000
      75 -> 84         0.14203
      77 -> 82        -0.17922
      78 -> 83         0.16572
      79 -> 82        -0.28576
      79 -> 83         0.29155
      79 -> 85         0.14919
      80 -> 82        -0.29057
      80 -> 83        -0.28260
      80 -> 86        -0.14007

 Excited State   8:      Singlet-A      5.4451 eV  227.70 nm  f=0.0020  <S**2>=0.000
      76 -> 82         0.20975
      77 -> 82         0.16414
      77 -> 87         0.12214
      78 -> 83         0.17855
      79 -> 84        -0.28773
      79 -> 85        -0.13387
      80 -> 84         0.41046
      80 -> 86        -0.14417
      81 -> 85        -0.12301

 Excited State   9:      Singlet-A      5.4459 eV  227.67 nm  f=0.0021  <S**2>=0.000
      76 -> 83        -0.20792
      77 -> 83         0.16914
      78 -> 82        -0.17051
      78 -> 87         0.12218
      79 -> 84         0.40743
      79 -> 86         0.13917
      80 -> 84         0.29239
      80 -> 85        -0.13992
      81 -> 86        -0.12378

 Excited State  10:      Singlet-A      5.6624 eV  218.96 nm  f=0.0017  <S**2>=0.000
      75 -> 84         0.16441
      76 -> 84        -0.10237
      77 -> 82        -0.24751
      78 -> 83         0.23783
      79 -> 82         0.10689
      79 -> 83        -0.23490
      79 -> 85         0.21983
      79 -> 86        -0.11795
      80 -> 82         0.33436
      80 -> 85        -0.11821
      80 -> 86        -0.23200

 The electronic state is 1-A.
 Alpha  occ. eigenvalues --  -77.09285 -24.70935 -24.70932 -24.70931 -10.27932
 Alpha  occ. eigenvalues --  -10.27928 -10.27927 -10.20803 -10.20800 -10.20800
 Alpha  occ. eigenvalues --  -10.20702 -10.20699 -10.20699 -10.20479 -10.20478
 Alpha  occ. eigenvalues --  -10.20477 -10.20318 -10.20316 -10.20315 -10.20310
 Alpha  occ. eigenvalues --  -10.20308 -10.20308  -6.55986  -4.72248  -4.72247
 Alpha  occ. eigenvalues --   -4.71743  -1.22114  -1.22110  -1.22109  -0.87207
 Alpha  occ. eigenvalues --   -0.86556  -0.86554  -0.77802  -0.76322  -0.76286
 Alpha  occ. eigenvalues --   -0.76285  -0.74868  -0.74866  -0.65458  -0.63138
 Alpha  occ. eigenvalues --   -0.62959  -0.62958  -0.60998  -0.60997  -0.57074
 Alpha  occ. eigenvalues --   -0.54665  -0.54664  -0.54254  -0.49447  -0.49444
 Alpha  occ. eigenvalues --   -0.49381  -0.48019  -0.48018  -0.46311  -0.46308
 Alpha  occ. eigenvalues --   -0.46296  -0.45864  -0.44921  -0.44920  -0.43857
 Alpha  occ. eigenvalues --   -0.43706  -0.43705  -0.42082  -0.40157  -0.40108
 Alpha  occ. eigenvalues --   -0.40107  -0.37162  -0.37157  -0.36439  -0.34998
 Alpha  occ. eigenvalues --   -0.34996  -0.34951  -0.33923  -0.33922  -0.27231
 Alpha  occ. eigenvalues --   -0.26849  -0.26600  -0.26597  -0.25427  -0.25420
 Alpha  occ. eigenvalues --   -0.21918
 Alpha virt. eigenvalues --   -0.02513  -0.02507  -0.02414  -0.01174  -0.01170
 Alpha virt. eigenvalues --   -0.00311   0.05879   0.05891   0.08467   0.10088
 Alpha virt. eigenvalues --    0.10089   0.12847   0.13529   0.13531   0.14052

 Mulliken charges:
               1
     1  C   -0.180310
     2  C   -0.174931
     3  C   -0.097290
     4  C   -0.151312
     5  C   -0.190028
     6  C    0.377472
     7  F   -0.287960
     8  P    0.435383
     9  C   -0.084260
    10  C   -0.169017
    11  C   -0.180574
    12  C    0.378286
    13  C   -0.192805
    14  C   -0.153770
    15  F   -0.288235
    16  C   -0.127857
    17  C   -0.169338
    18  C   -0.192628
    19  C    0.337908
    20  C   -0.181703
    21  C   -0.183830
    22  F   -0.305743
    23  H    0.154039
    24  H    0.146460
    25  H    0.177270
    26  H    0.158025
    27  H    0.155938
    28  H    0.156380
    29  H    0.154155
    30  H    0.152986
    31  H    0.126158
    32  H    0.133470
    33  H    0.136732
    34  H    0.130925
 Sum of Mulliken charges =   0.00000

 Dipole moment (field-independent basis, Debye):
    X=             -2.8811    Y=             -1.4159    Z=              1.4570  Tot=              3.5254
 Quadrupole moment (field-independent basis, Debye-Ang):
   XX=           -142.7441   YY=           -136.2866   ZZ=           -121.8271
   XY=             -5.3478   XZ=              0.7784   YZ=             -0.4029

 Summary of Natural Population Analysis:

                                       Natural Population
                Natural  -----------------------------------------------
    Atom  No    Charge         Core      Valence    Rydberg      Total
 -----------------------------------------------------------------------
      C    1   -0.29517      1.99899     4.28138    0.01480     6.29517
      C    2   -0.21855      1.99903     4.20349    0.01603     6.21855
      C    3   -0.42385      1.99890     4.39863    0.02632     6.42385
      C    4   -0.19164      1.99901     4.17643    0.01620     6.19164
      C    5   -0.30707      1.99898     4.29297    0.01512     6.30707
      C    6    0.43288      1.99844     3.54127    0.02741     5.56712
      F    7   -0.32460      1.99994     7.31908    0.00558     9.32460
      P    8    1.21001      9.99756     3.74086    0.05156    13.78999
      C    9   -0.40345      1.99889     4.38033    0.02422     6.40345
      C   10   -0.23445      1.99901     4.21815    0.01729     6.23445
      C   11   -0.28990      1.99898     4.27622    0.01470     6.28990
      C   12    0.43517      1.99844     3.53906    0.02734     5.56483
      C   13   -0.31886      1.99899     4.30419    0.01568     6.31886
      C   14   -0.18275      1.99903     4.16856    0.01516     6.18275
      F   15   -0.32475      1.99994     7.31925    0.00556     9.32475
      C   16   -0.49074      1.99887     4.46598    0.02589     6.49074
      C   17   -0.21137      1.99903     4.19637    0.01597     6.21137
      C   18   -0.31696      1.99900     4.30217    0.01579     6.31696
      C   19    0.36830      1.99844     3.60517    0.02809     5.63170
      C   20   -0.28935      1.99899     4.27537    0.01499     6.28935
      C   21   -0.26407      1.99900     4.24662    0.01845     6.26407
      F   22   -0.34032      1.99994     7.33490    0.00548     9.34032
      H   23    0.25445      0.00000     0.74433    0.00123     0.74555
      H   24    0.24096      0.00000     0.75800    0.00104     0.75904
      H   25    0.26204      0.00000     0.73656    0.00140     0.73796
      H   26    0.25727      0.00000     0.74155    0.00118     0.74273
      H   27    0.25070      0.00000     0.74804    0.00126     0.74930
      H   28    0.25614      0.00000     0.74266    0.00119     0.74386
      H   29    0.25529      0.00000     0.74354    0.00117     0.74471
      H   30    0.24559      0.00000     0.75317    0.00124     0.75441
      H   31    0.23071      0.00000     0.76836    0.00093     0.76929
      H   32    0.24517      0.00000     0.75363    0.00121     0.75483
      H   33    0.24681      0.00000     0.75198    0.00121     0.75319
      H   34    0.23636      0.00000     0.76206    0.00158     0.76364
 =======================================================================
   * Total *    0.00000     51.97740   109.59033    0.43227   162.00000

 Normal termination of Gaussian 16 at Sun Aug 23 17:41:22 2020.
