 Gaussian 16, Revision A.03,

 ---------------------------------
 # opt=CalcAll B3LYP/6-31G* scf=qc
 ---------------------------------

 -------------------
 Title Card Required
 -------------------
 Symbolic Z-matrix:
 Charge =  0 Multiplicity = 1

 SCF Done:  E(RB3LYP) =  -2415.07007481     a.u. after    8 cycles
 SCF Done:  E(RB3LYP) =  -2415.08172963     a.u. after   15 cycles
 SCF Done:  E(RB3LYP) =  -2415.08460953     a.u. after   15 cycles
 SCF Done:  E(RB3LYP) =  -2415.08573523     a.u. after   15 cycles
 SCF Done:  E(RB3LYP) =  -2415.08612787     a.u. after   15 cycles
 SCF Done:  E(RB3LYP) =  -2415.08621058     a.u. after   11 cycles
 SCF Done:  E(RB3LYP) =  -2415.08622814     a.u. after    7 cycles
 SCF Done:  E(RB3LYP) =  -2415.08624637     a.u. after   11 cycles
 SCF Done:  E(RB3LYP) =  -2415.08624693     a.u. after    5 cycles
 SCF Done:  E(RB3LYP) =  -2415.08624921     a.u. after    3 cycles
 SCF Done:  E(RB3LYP) =  -2415.08624528     a.u. after    2 cycles
 SCF Done:  E(RB3LYP) =  -2415.08624186     a.u. after    3 cycles
 SCF Done:  E(RB3LYP) =  -2415.08624802     a.u. after    3 cycles
 Optimization completed.
    -- Stationary point found.
 Normal termination of Gaussian 16 at Sun Aug 23 01:04:06 2020.

 ----------------------------------------------------------------------
 # freq B3LYP/6-31G* scf=qc volume NMR pop=NPA density=current Geom=All
 Check Guess=Read
 ----------------------------------------------------------------------

 Structure from the checkpoint file:  "phosphine_11_conf132.chk"
 -------------------
 Title Card Required
 -------------------
 Charge =  0 Multiplicity = 1

 SCF Done:  E(RB3LYP) =  -2415.08624802     a.u. after    1 cycles

      1  C    Isotropic =    67.5541   Anisotropy =   140.5767

      2  C    Isotropic =    60.2332   Anisotropy =   160.2986

      3  C    Isotropic =    58.7431   Anisotropy =   177.4093

      4  C    Isotropic =    61.9006   Anisotropy =   168.5941

      5  C    Isotropic =    67.5374   Anisotropy =   140.1173

      6  C    Isotropic =    51.6101   Anisotropy =   109.1278

      7  Cl   Isotropic =   721.0139   Anisotropy =   452.8774

      8  P    Isotropic =   364.8521   Anisotropy =    37.4217

      9  C    Isotropic =    58.7491   Anisotropy =   177.3986

     10  C    Isotropic =    61.8627   Anisotropy =   168.6033

     11  C    Isotropic =    67.5341   Anisotropy =   140.0999

     12  C    Isotropic =    51.5899   Anisotropy =   109.1684

     13  C    Isotropic =    67.5636   Anisotropy =   140.6175

     14  C    Isotropic =    60.1942   Anisotropy =   160.2518

     15  Cl   Isotropic =   720.9884   Anisotropy =   452.8578

     16  C    Isotropic =    58.7123   Anisotropy =   177.4413

     17  C    Isotropic =    61.9025   Anisotropy =   168.5835

     18  C    Isotropic =    67.5414   Anisotropy =   140.1110

     19  C    Isotropic =    51.6056   Anisotropy =   109.1394

     20  C    Isotropic =    67.5575   Anisotropy =   140.5769

     21  C    Isotropic =    60.2406   Anisotropy =   160.2774

     22  Cl   Isotropic =   720.9564   Anisotropy =   452.9844

     23  H    Isotropic =    25.0930   Anisotropy =     6.6329

     24  H    Isotropic =    24.7801   Anisotropy =     8.9734

     25  H    Isotropic =    25.5840   Anisotropy =    12.1225

     26  H    Isotropic =    25.2081   Anisotropy =     8.1429

     27  H    Isotropic =    25.5830   Anisotropy =    12.1026

     28  H    Isotropic =    25.2094   Anisotropy =     8.1395

     29  H    Isotropic =    25.0891   Anisotropy =     6.6367

     30  H    Isotropic =    24.7779   Anisotropy =     8.9614

     31  H    Isotropic =    25.5859   Anisotropy =    12.1150

     32  H    Isotropic =    25.2088   Anisotropy =     8.1439

     33  H    Isotropic =    25.0945   Anisotropy =     6.6315

     34  H    Isotropic =    24.7808   Anisotropy =     8.9699

  Exact polarizability: 280.668  -0.076 280.520   0.081   0.007 185.122
 Approx polarizability: 393.543  -0.177 393.292   0.183   0.014 343.179

                      1                      2                      3
                      A                      A                      A
 Frequencies --     22.5687                24.1037                29.7397
 Red. masses --      4.8329                 5.4751                 8.3536
 Frc consts  --      0.0015                 0.0019                 0.0044
 IR Inten    --      0.2718                 0.2390                 0.1850

                      4                      5                      6
                      A                      A                      A
 Frequencies --     30.2259                38.5469                40.5853
 Red. masses --      6.9811                 8.5486                 4.4372
 Frc consts  --      0.0038                 0.0075                 0.0043
 IR Inten    --      0.2352                 0.1999                 0.0272

                      7                      8                      9
                      A                      A                      A
 Frequencies --    109.4525               117.7490               117.7917
 Red. masses --      8.8651                 8.8337                 8.8338
 Frc consts  --      0.0626                 0.0722                 0.0722
 IR Inten    --      0.0248                 0.3509                 0.3487

                     10                     11                     12
                      A                      A                      A
 Frequencies --    181.0732               187.4838               187.6937
 Red. masses --     10.0374                 8.7912                 8.7970
 Frc consts  --      0.1939                 0.1821                 0.1826
 IR Inten    --      0.3332                 0.5699                 0.5714

                     13                     14                     15
                      A                      A                      A
 Frequencies --    264.0466               293.7440               293.8097
 Red. masses --      8.9799                 8.4191                 8.4109
 Frc consts  --      0.3689                 0.4280                 0.4278
 IR Inten    --      0.2163                 0.9115                 0.9097

                     16                     17                     18
                      A                      A                      A
 Frequencies --    310.9678               328.8014               328.8284
 Red. masses --      6.0403                 5.9824                 5.9818
 Frc consts  --      0.3441                 0.3811                 0.3811
 IR Inten    --      0.0034                 1.8868                 1.8786

                     19                     20                     21
                      A                      A                      A
 Frequencies --    384.0446               384.1701               414.7519
 Red. masses --      8.0254                 8.0226                 3.0457
 Frc consts  --      0.6974                 0.6976                 0.3087
 IR Inten    --     20.9723                21.0146                 0.0544

                     22                     23                     24
                      A                      A                      A
 Frequencies --    414.8803               416.8265               427.0115
 Red. masses --      3.0474                 3.2155                 6.6022
 Frc consts  --      0.3090                 0.3292                 0.7093
 IR Inten    --      0.0445                 0.1653                 2.9365

                     25                     26                     27
                      A                      A                      A
 Frequencies --    499.5635               509.4591               509.5794
 Red. masses --      5.5249                 3.6471                 3.6539
 Frc consts  --      0.8124                 0.5577                 0.5590
 IR Inten    --      6.8252                19.9148                19.7834

                     28                     29                     30
                      A                      A                      A
 Frequencies --    531.7431               548.8391               548.9185
 Red. masses --      4.5711                 7.4282                 7.4205
 Frc consts  --      0.7615                 1.3183                 1.3173
 IR Inten    --      9.8745                 5.4660                 5.4742

                     31                     32                     33
                      A                      A                      A
 Frequencies --    644.3495               644.3975               645.3139
 Red. masses --      7.1600                 7.1603                 7.1685
 Frc consts  --      1.7515                 1.7518                 1.7588
 IR Inten    --      0.0369                 0.0369                 0.0956

                     34                     35                     36
                      A                      A                      A
 Frequencies --    718.2761               718.3925               718.7646
 Red. masses --      4.5894                 4.5956                 4.6102
 Frc consts  --      1.3951                 1.3974                 1.4033
 IR Inten    --      1.6573                 1.6956                 0.2873

                     37                     38                     39
                      A                      A                      A
 Frequencies --    746.1370               751.6484               751.6587
 Red. masses --      7.2607                 7.2731                 7.2742
 Frc consts  --      2.3816                 2.4210                 2.4215
 IR Inten    --     14.6349                54.3576                54.3509

                     40                     41                     42
                      A                      A                      A
 Frequencies --    833.8392               834.2531               834.3427
 Red. masses --      1.4157                 1.4320                 1.4313
 Frc consts  --      0.5799                 0.5872                 0.5871
 IR Inten    --     23.2422                33.0325                32.8313

                     43                     44                     45
                      A                      A                      A
 Frequencies --    845.9693               846.1016               849.1287
 Red. masses --      1.2465                 1.2464                 1.2501
 Frc consts  --      0.5256                 0.5257                 0.5311
 IR Inten    --      0.6181                 0.6431                 0.3233

                     46                     47                     48
                      A                      A                      A
 Frequencies --    969.6623               969.7438               970.1226
 Red. masses --      1.2758                 1.2771                 1.2882
 Frc consts  --      0.7068                 0.7076                 0.7143
 IR Inten    --      0.1500                 0.1437                 0.2084

                     49                     50                     51
                      A                      A                      A
 Frequencies --    973.4578               973.6828               976.9274
 Red. masses --      1.3456                 1.3434                 1.3207
 Frc consts  --      0.7513                 0.7504                 0.7427
 IR Inten    --      0.0106                 0.0124                 0.4168

                     52                     53                     54
                      A                      A                      A
 Frequencies --   1027.9938              1028.0034              1029.6320
 Red. masses --      4.7615                 4.7634                 4.6999
 Frc consts  --      2.9647                 2.9659                 2.9356
 IR Inten    --     62.6742                62.7277                 5.1170

                     55                     56                     57
                      A                      A                      A
 Frequencies --   1097.7629              1097.7915              1101.5227
 Red. masses --      7.9076                 7.9175                 8.0760
 Frc consts  --      5.6145                 5.6218                 5.7734
 IR Inten    --     81.2137                81.2554                13.6643

                     58                     59                     60
                      A                      A                      A
 Frequencies --   1118.2783              1118.3528              1121.2268
 Red. masses --      2.1229                 2.1215                 2.1021
 Frc consts  --      1.5642                 1.5633                 1.5570
 IR Inten    --     33.0438                32.8665                 6.3957

                     61                     62                     63
                      A                      A                      A
 Frequencies --   1139.4042              1139.4613              1139.5758
 Red. masses --      1.4020                 1.4014                 1.4022
 Frc consts  --      1.0724                 1.0720                 1.0728
 IR Inten    --      0.8401                 0.1996                 3.0949

                     64                     65                     66
                      A                      A                      A
 Frequencies --   1219.3168              1219.3900              1220.8693
 Red. masses --      1.1572                 1.1573                 1.1517
 Frc consts  --      1.0137                 1.0139                 1.0114
 IR Inten    --      4.8060                 4.8055                 0.9060

                     67                     68                     69
                      A                      A                      A
 Frequencies --   1318.3313              1322.2478              1322.3545
 Red. masses --      6.9310                 7.6257                 7.7082
 Frc consts  --      7.0973                 7.8552                 7.9414
 IR Inten    --      1.3135                 2.6624                 2.6702

                     70                     71                     72
                      A                      A                      A
 Frequencies --   1337.4159              1337.5133              1337.7458
 Red. masses --      1.3358                 1.3300                 1.3501
 Frc consts  --      1.4078                 1.4018                 1.4235
 IR Inten    --      0.4563                 0.3317                 1.4976

                     73                     74                     75
                      A                      A                      A
 Frequencies --   1429.5691              1430.0018              1430.0832
 Red. masses --      2.6346                 2.6411                 2.6415
 Frc consts  --      3.1723                 3.1821                 3.1829
 IR Inten    --     19.4251                 6.3355                 6.1861

                     76                     77                     78
                      A                      A                      A
 Frequencies --   1527.1416              1527.1793              1527.1929
 Red. masses --      2.0947                 2.0767                 2.0764
 Frc consts  --      2.8782                 2.8536                 2.8533
 IR Inten    --     14.9803                63.0615                64.0036

                     79                     80                     81
                      A                      A                      A
 Frequencies --   1611.0354              1611.2799              1611.3051
 Red. masses --      6.6429                 6.6601                 6.6619
 Frc consts  --     10.1583                10.1876                10.1906
 IR Inten    --      3.8677                 3.8014                 3.8245

                     82                     83                     84
                      A                      A                      A
 Frequencies --   1633.4499              1633.4540              1634.4942
 Red. masses --      5.4267                 5.4265                 5.4925
 Frc consts  --      8.5309                 8.5307                 8.6454
 IR Inten    --     29.6840                29.7406                13.1179

                     85                     86                     87
                      A                      A                      A
 Frequencies --   3188.0424              3188.0748              3188.1912
 Red. masses --      1.0893                 1.0892                 1.0892
 Frc consts  --      6.5228                 6.5224                 6.5230
 IR Inten    --      7.0265                 2.2319                 3.4385

                     88                     89                     90
                      A                      A                      A
 Frequencies --   3205.8304              3205.9844              3206.5337
 Red. masses --      1.0878                 1.0878                 1.0879
 Frc consts  --      6.5870                 6.5875                 6.5902
 IR Inten    --      0.8691                 0.8604                 0.6370

                     91                     92                     93
                      A                      A                      A
 Frequencies --   3222.6407              3222.6430              3222.7806
 Red. masses --      1.0938                 1.0938                 1.0937
 Frc consts  --      6.6926                 6.6926                 6.6927
 IR Inten    --      2.2526                 2.2753                10.0989

                     94                     95                     96
                      A                      A                      A
 Frequencies --   3223.7130              3223.7185              3223.9651
 Red. masses --      1.0939                 1.0939                 1.0941
 Frc consts  --      6.6980                 6.6980                 6.7003
 IR Inten    --      5.6752                 5.6846                 0.0018

 - Thermochemistry -
 -------------------
 Temperature   298.150 Kelvin.  Pressure   1.00000 Atm.
 Atom     1 has atomic number  6 and mass  12.00000

 Molecular mass:   363.97422 amu.
 Principal axes and moments of inertia in atomic units:
                           1         2         3
     Eigenvalues --  ******************************
           X            0.99977  -0.02126   0.00001
           Y            0.02126   0.99977   0.00000
           Z           -0.00001  -0.00000   1.00000
 This molecule is an asymmetric top.
 Rotational symmetry number  1.
 Warning -- assumption of classical behavior for rotation
           may cause significant error
 Rotational temperatures (Kelvin)      0.00723     0.00723     0.00405
 Rotational constants (GHZ):           0.15066     0.15057     0.08440
 Zero-point vibrational energy     643804.2 (Joules/Mol)
                                  153.87291 (Kcal/Mol)
 Warning -- explicit consideration of  30 degrees of freedom as
           vibrations may cause significant error
 Vibrational temperatures:     32.47    34.68    42.79    43.49    55.46
          (Kelvin)             58.39   157.48   169.41   169.48   260.52
                              269.75   270.05   379.90   422.63   422.73
                              447.41   473.07   473.11   552.55   552.74
                              596.74   596.92   599.72   614.37   718.76
                              733.00   733.17   765.06   789.66   789.77
                              927.08   927.14   928.46  1033.44  1033.61
                             1034.14  1073.52  1081.45  1081.47  1199.71
                             1200.30  1200.43  1217.16  1217.35  1221.71
                             1395.13  1395.25  1395.79  1400.59  1400.91
                             1405.58  1479.05  1479.07  1481.41  1579.44
                             1579.48  1584.85  1608.95  1609.06  1613.20
                             1639.35  1639.43  1639.60  1754.32  1754.43
                             1756.56  1896.78  1902.42  1902.57  1924.24
                             1924.38  1924.72  2056.83  2057.45  2057.57
                             2197.22  2197.27  2197.29  2317.92  2318.27
                             2318.31  2350.17  2350.18  2351.67  4586.88
                             4586.93  4587.10  4612.47  4612.70  4613.49
                             4636.66  4636.66  4636.86  4638.20  4638.21
                             4638.57

 Zero-point correction=                           0.245212 (Hartree/Particle)
 Thermal correction to Energy=                    0.264853
 Thermal correction to Enthalpy=                  0.265797
 Thermal correction to Gibbs Free Energy=         0.192412
 Sum of electronic and zero-point Energies=          -2414.841036
 Sum of electronic and thermal Energies=             -2414.821395
 Sum of electronic and thermal Enthalpies=           -2414.820451
 Sum of electronic and thermal Free Energies=        -2414.893836

                     E (Thermal)             CV                S
                      KCal/Mol        Cal/Mol-Kelvin    Cal/Mol-Kelvin
 Total                  166.198             74.116            154.451
 Electronic               0.000              0.000              0.000
 Translational            0.889              2.981             43.569
 Rotational               0.889              2.981             36.372
 Vibrational            164.420             68.154             74.510
 Vibration     1          0.593              1.985              6.394
 Vibration     2          0.593              1.985              6.264
 Vibration     3          0.594              1.984              5.847
 Vibration     4          0.594              1.984              5.815
 Vibration     5          0.594              1.981              5.332
 Vibration     6          0.594              1.981              5.230
 Vibration     7          0.606              1.942              3.279
 Vibration     8          0.608              1.935              3.137
 Vibration     9          0.608              1.935              3.136
 Vibration    10          0.630              1.865              2.317
 Vibration    11          0.632              1.857              2.253
 Vibration    12          0.632              1.857              2.250
 Vibration    13          0.671              1.739              1.635
 Vibration    14          0.689              1.685              1.452
 Vibration    15          0.689              1.685              1.452
 Vibration    16          0.700              1.653              1.357
 Vibration    17          0.712              1.618              1.266
 Vibration    18          0.712              1.618              1.266
 Vibration    19          0.753              1.504              1.023
 Vibration    20          0.753              1.504              1.023
 Vibration    21          0.778              1.438              0.910
 Vibration    22          0.778              1.438              0.910
 Vibration    23          0.780              1.434              0.903
 Vibration    24          0.789              1.411              0.868
 Vibration    25          0.855              1.251              0.659
 Vibration    26          0.865              1.229              0.635
 Vibration    27          0.865              1.229              0.635
 Vibration    28          0.887              1.180              0.583
 Vibration    29          0.904              1.142              0.547
 Vibration    30          0.904              1.142              0.546

                           ! Non-Optimized Parameters !
 Normal termination of Gaussian 16 at Sun Aug 23 01:19:19 2020.
 Gaussian 16:  ES64L-G16RevA.03 25-Dec-2016

 ----------------------------------------------------------------------
 # TD(NStates=10, Root=1) B3LYP/6-31G* scf=qc volume pop=NPA density=cu
 rrent Geom=AllCheck Guess=Read
 ----------------------------------------------------------------------

 Structure from the checkpoint file:  "phosphine_11_conf133.chk"
 -------------------
 Title Card Required
 -------------------
 Charge =  0 Multiplicity = 1

                         Standard orientation:
 ---------------------------------------------------------------------
 Center     Atomic      Atomic             Coordinates (Angstroms)
 Number     Number       Type             X           Y           Z
 ---------------------------------------------------------------------
      1          6           0       -3.869860   -1.198636    0.851886
      2          6           0       -2.709717   -0.627223    1.371353
      3          6           0       -1.465194   -0.799783    0.742681
      4          6           0       -1.410402   -1.586082   -0.417824
      5          6           0       -2.560905   -2.175152   -0.944348
      6          6           0       -3.782977   -1.971850   -0.305596
      7         17           0       -5.236271   -2.709146   -0.963648
      8         15           0       -0.000086   -0.000548    1.547660
      9          6           0        1.424857   -0.869243    0.742570
     10          6           0        2.074523   -0.431115   -0.421073
     11          6           0        3.160243   -1.132202   -0.947856
     12          6           0        3.599527   -2.288948   -0.306107
     13          6           0        2.977262   -2.748289    0.854462
     14          6           0        1.901842   -2.030047    1.374050
     15         17           0        4.965265   -3.177843   -0.964368
     16          6           0        0.040106    1.667924    0.742715
     17          6           0       -0.667646    2.013175   -0.418293
     18          6           0       -0.602750    3.304028   -0.944950
     19          6           0        0.183518    4.261135   -0.305783
     20          6           0        0.895970    3.950218    0.852192
     21          6           0        0.811008    2.659810    1.371747
     22         17           0        0.271321    5.888357   -0.963947
     23          1           0       -4.827082   -1.056856    1.342348
     24          1           0       -2.775588   -0.040950    2.284754
     25          1           0       -0.461640   -1.749094   -0.919748
     26          1           0       -2.510209   -2.784209   -1.840895
     27          1           0        1.737906    0.469578   -0.925169
     28          1           0        3.659368   -0.785717   -1.846821
     29          1           0        3.336427   -3.645600    1.347172
     30          1           0        1.430045   -2.378137    2.289793
     31          1           0       -1.282554    1.272666   -0.920483
     32          1           0       -1.155064    3.564310   -1.841901
     33          1           0        1.496709    4.708631    1.342960
     34          1           0        1.351188    2.424048    2.285518
 ---------------------------------------------------------------------

 SCF Done:  E(RB3LYP) =  -2415.08624802     a.u. after    1 cycles

 Excitation energies and oscillator strengths:

 Excited State   1:      Singlet-A      4.4051 eV  281.46 nm  f=0.1829  <S**2>=0.000
      93 -> 94         0.69580
 This state for optimization and/or second-order correction.
 Total Energy, E(TD-HF/TD-DFT) =  -2414.92436299
 Copying the excited state density for this state as the 1-particle RhoCI density.

 Excited State   2:      Singlet-A      4.4071 eV  281.33 nm  f=0.1841  <S**2>=0.000
      93 -> 95         0.69577

 Excited State   3:      Singlet-A      4.6115 eV  268.86 nm  f=0.0036  <S**2>=0.000
      89 -> 94         0.10985
      90 -> 95         0.11028
      93 -> 96         0.67974

 Excited State   4:      Singlet-A      4.9172 eV  252.14 nm  f=0.0001  <S**2>=0.000
      88 -> 94         0.11693
      89 -> 94        -0.11786
      89 -> 97         0.10022
      90 -> 95         0.11820
      93 -> 98         0.64528

 Excited State   5:      Singlet-A      4.9180 eV  252.10 nm  f=0.0001  <S**2>=0.000
      88 -> 95         0.11678
      89 -> 95         0.11884
      90 -> 94         0.11854
      90 -> 97         0.10096
      93 -> 99         0.64489

 Excited State   6:      Singlet-A      5.0219 eV  246.89 nm  f=0.0090  <S**2>=0.000
      91 -> 94        -0.11608
      92 -> 95        -0.11648
      93 -> 97         0.66876

 Excited State   7:      Singlet-A      5.2597 eV  235.72 nm  f=0.0017  <S**2>=0.000
      89 -> 94        -0.13287
      90 -> 95        -0.13009
      91 -> 94        -0.24579
      91 -> 95        -0.36836
      91 -> 98        -0.12522
      92 -> 94         0.37270
      92 -> 95        -0.24501
      92 -> 99        -0.12318
      93 -> 96         0.10384

 Excited State   8:      Singlet-A      5.3611 eV  231.26 nm  f=0.0050  <S**2>=0.000
      88 -> 94         0.19181
      89 -> 94        -0.18708
      89 -> 97         0.11219
      90 -> 95         0.18633
      91 -> 94        -0.12821
      91 -> 96         0.37962
      91 -> 98        -0.13710
      92 -> 95         0.13058
      92 -> 96         0.22686
      92 -> 99         0.13691
      93 -> 98        -0.22739

 Excited State   9:      Singlet-A      5.3620 eV  231.23 nm  f=0.0048  <S**2>=0.000
      88 -> 95         0.19002
      89 -> 95         0.18623
      90 -> 94         0.18663
      90 -> 97         0.11225
      91 -> 95         0.13184
      91 -> 96        -0.22531
      91 -> 99         0.13588
      92 -> 94         0.13115
      92 -> 96         0.38202
      92 -> 98         0.13781
      93 -> 99        -0.22825

 Excited State  10:      Singlet-A      5.4212 eV  228.70 nm  f=0.1611  <S**2>=0.000
      91 -> 94        -0.30275
      91 -> 95         0.34888
      92 -> 94         0.35289
      92 -> 95         0.30544
      92 -> 96        -0.13491

 The electronic state is 1-A.
 Alpha  occ. eigenvalues -- -101.55494-101.55491-101.55491 -77.10095 -10.26331
 Alpha  occ. eigenvalues --  -10.26327 -10.26327 -10.21418 -10.21418 -10.21417
 Alpha  occ. eigenvalues --  -10.21368 -10.21366 -10.21366 -10.21347 -10.21345
 Alpha  occ. eigenvalues --  -10.21345 -10.21314 -10.21312 -10.21311 -10.21250
 Alpha  occ. eigenvalues --  -10.21247 -10.21246  -9.47126  -9.47123  -9.47123
 Alpha  occ. eigenvalues --   -7.23521  -7.23518  -7.23518  -7.22556  -7.22554
 Alpha  occ. eigenvalues --   -7.22553  -7.22519  -7.22516  -7.22516  -6.56809
 Alpha  occ. eigenvalues --   -4.73070  -4.73070  -4.72565  -0.89964  -0.89792
 Alpha  occ. eigenvalues --   -0.89790  -0.85153  -0.84237  -0.84235  -0.76898
 Alpha  occ. eigenvalues --   -0.76780  -0.76779  -0.76742  -0.73907  -0.73905
 Alpha  occ. eigenvalues --   -0.65058  -0.63150  -0.62987  -0.62986  -0.60497
 Alpha  occ. eigenvalues --   -0.60496  -0.57615  -0.52432  -0.52430  -0.49746
 Alpha  occ. eigenvalues --   -0.48087  -0.47999  -0.47998  -0.47167  -0.47167
 Alpha  occ. eigenvalues --   -0.46321  -0.44340  -0.44246  -0.44245  -0.42726
 Alpha  occ. eigenvalues --   -0.42724  -0.40320  -0.40238  -0.40236  -0.39581
 Alpha  occ. eigenvalues --   -0.37219  -0.37218  -0.37129  -0.35190  -0.35186
 Alpha  occ. eigenvalues --   -0.34135  -0.33461  -0.33458  -0.31868  -0.31862
 Alpha  occ. eigenvalues --   -0.31861  -0.27684  -0.27415  -0.27143  -0.27140
 Alpha  occ. eigenvalues --   -0.25831  -0.25826  -0.22677
 Alpha virt. eigenvalues --   -0.03959  -0.03954  -0.03033  -0.01964  -0.01788
 Alpha virt. eigenvalues --   -0.01783   0.02242   0.02244   0.02402   0.05588
 Alpha virt. eigenvalues --    0.05596   0.10344   0.12155   0.12344   0.12346

 Mulliken charges:
               1
     1  C   -0.114087
     2  C   -0.168539
     3  C   -0.101426
     4  C   -0.150713
     5  C   -0.121145
     6  C   -0.075657
     7  Cl  -0.002714
     8  P    0.446461
     9  C   -0.130691
    10  C   -0.174969
    11  C   -0.117941
    12  C   -0.103977
    13  C   -0.124568
    14  C   -0.168884
    15  Cl  -0.049645
    16  C   -0.083649
    17  C   -0.158488
    18  C   -0.113233
    19  C   -0.071328
    20  C   -0.121010
    21  C   -0.151778
    22  Cl   0.003111
    23  H    0.161466
    24  H    0.148209
    25  H    0.178883
    26  H    0.166255
    27  H    0.131101
    28  H    0.144829
    29  H    0.142013
    30  H    0.126553
    31  H    0.163891
    32  H    0.167965
    33  H    0.165668
    34  H    0.158037
 Sum of Mulliken charges =  -0.00000

 Dipole moment (field-independent basis, Debye):
    X=             -3.3245    Y=              2.5897    Z=              1.9739  Tot=              4.6534
 Quadrupole moment (field-independent basis, Debye-Ang):
   XX=           -172.2058   YY=           -162.8957   ZZ=           -145.0439
   XY=              7.7009   XZ=              1.0423   YZ=              0.1133

 Summary of Natural Population Analysis:

                                       Natural Population
                Natural  -----------------------------------------------
    Atom  No    Charge         Core      Valence    Rydberg      Total
 -----------------------------------------------------------------------
      C    1   -0.24276      1.99893     4.22845    0.01538     6.24276
      C    2   -0.21235      1.99902     4.19767    0.01567     6.21235
      C    3   -0.41910      1.99890     4.39420    0.02601     6.41910
      C    4   -0.19774      1.99899     4.18235    0.01640     6.19774
      C    5   -0.24892      1.99893     4.23428    0.01572     6.24892
      C    6   -0.03999      1.99855     4.01914    0.02230     6.03999
     Cl    7    0.01442      9.99967     6.96618    0.01973    16.98558
      P    8    1.21200      9.99758     3.74057    0.04984    13.78800
      C    9   -0.48636      1.99886     4.46234    0.02517     6.48636
      C   10   -0.25284      1.99899     4.23606    0.01779     6.25284
      C   11   -0.24327      1.99893     4.22845    0.01589     6.24327
      C   12   -0.09829      1.99854     4.07755    0.02220     6.09829
      C   13   -0.26222      1.99894     4.24671    0.01657     6.26222
      C   14   -0.21837      1.99901     4.20323    0.01613     6.21837
     Cl   15   -0.02101      9.99968     7.00077    0.02057    17.02101
      C   16   -0.38956      1.99889     4.36664    0.02403     6.38956
      C   17   -0.21850      1.99899     4.20297    0.01653     6.21850
      C   18   -0.23488      1.99892     4.22080    0.01515     6.23488
      C   19   -0.03137      1.99855     4.01058    0.02225     6.03137
      C   20   -0.25538      1.99893     4.24051    0.01594     6.25538
      C   21   -0.18587      1.99901     4.17173    0.01513     6.18587
     Cl   22    0.01850      9.99967     6.96228    0.01956    16.98150
      H   23    0.25679      0.00000     0.74212    0.00109     0.74321
      H   24    0.24244      0.00000     0.75652    0.00104     0.75756
      H   25    0.26347      0.00000     0.73517    0.00135     0.73653
      H   26    0.26000      0.00000     0.73894    0.00106     0.74000
      H   27    0.23681      0.00000     0.76174    0.00145     0.76319
      H   28    0.24981      0.00000     0.74914    0.00104     0.75019
      H   29    0.24823      0.00000     0.75072    0.00105     0.75177
      H   30    0.23187      0.00000     0.76719    0.00095     0.76813
      H   31    0.25550      0.00000     0.74327    0.00123     0.74450
      H   32    0.26054      0.00000     0.73841    0.00106     0.73946
      H   33    0.25948      0.00000     0.73949    0.00103     0.74052
      H   34    0.24893      0.00000     0.74986    0.00121     0.75107
 =======================================================================
   * Total *   -0.00000     75.97648   109.56603    0.45749   186.00000

 Normal termination of Gaussian 16 at Sun Aug 23 01:36:43 2020.
