 Gaussian 16, Revision A.03,

 ---------------------------------
 # opt=CalcAll B3LYP/6-31G* scf=qc
 ---------------------------------

 -------------------
 Title Card Required
 -------------------
 Symbolic Z-matrix:
 Charge =  0 Multiplicity = 1

 SCF Done:  E(RB3LYP) =  -1333.93425455     a.u. after    7 cycles
 SCF Done:  E(RB3LYP) =  -1333.96055876     a.u. after   17 cycles
 SCF Done:  E(RB3LYP) =  -1333.97496651     a.u. after   15 cycles
 SCF Done:  E(RB3LYP) =  -1333.99366068     a.u. after   19 cycles
 SCF Done:  E(RB3LYP) =  -1333.99620387     a.u. after   19 cycles
 SCF Done:  E(RB3LYP) =  -1333.99832556     a.u. after   15 cycles
 SCF Done:  E(RB3LYP) =  -1333.99892096     a.u. after   17 cycles
 SCF Done:  E(RB3LYP) =  -1333.99898073     a.u. after   11 cycles
 SCF Done:  E(RB3LYP) =  -1333.99897996     a.u. after    3 cycles
 SCF Done:  E(RB3LYP) =  -1333.99897745     a.u. after    2 cycles
 SCF Done:  E(RB3LYP) =  -1333.99897278     a.u. after    4 cycles
 SCF Done:  E(RB3LYP) =  -1333.99897962     a.u. after    4 cycles
 SCF Done:  E(RB3LYP) =  -1333.99897455     a.u. after    2 cycles
 SCF Done:  E(RB3LYP) =  -1333.99897602     a.u. after    2 cycles
 SCF Done:  E(RB3LYP) =  -1333.99897701     a.u. after    2 cycles
 SCF Done:  E(RB3LYP) =  -1333.99897773     a.u. after    3 cycles
 SCF Done:  E(RB3LYP) =  -1333.99897830     a.u. after    2 cycles
 SCF Done:  E(RB3LYP) =  -1333.99897773     a.u. after    2 cycles
 Optimization completed on the basis of negligible forces.
    -- Stationary point found.
 Normal termination of Gaussian 16 at Sun Aug 23 18:26:56 2020.

 ----------------------------------------------------------------------
 # freq B3LYP/6-31G* scf=qc volume NMR pop=NPA density=current Geom=All
 Check Guess=Read
 ----------------------------------------------------------------------

 Structure from the checkpoint file:  "phosphine_5_conf132.chk"
 -------------------
 Title Card Required
 -------------------
 Charge =  0 Multiplicity = 1

 SCF Done:  E(RB3LYP) =  -1333.99897773     a.u. after    1 cycles

      1  C    Isotropic =    80.0638   Anisotropy =   136.7122

      2  C    Isotropic =    60.7287   Anisotropy =   171.8453

      3  C    Isotropic =    61.6051   Anisotropy =   173.4673

      4  C    Isotropic =    59.0451   Anisotropy =   162.8141

      5  C    Isotropic =    79.9214   Anisotropy =   137.4284

      6  C    Isotropic =    32.6708   Anisotropy =    98.8112

      7  F    Isotropic =   295.8274   Anisotropy =   113.0601

      8  P    Isotropic =   366.1278   Anisotropy =    39.7578

      9  C    Isotropic =    61.6420   Anisotropy =   173.4894

     10  C    Isotropic =    60.6887   Anisotropy =   171.9146

     11  C    Isotropic =    80.0708   Anisotropy =   136.7362

     12  C    Isotropic =    32.6572   Anisotropy =    98.8327

     13  C    Isotropic =    79.9378   Anisotropy =   137.4324

     14  C    Isotropic =    59.0189   Anisotropy =   162.7603

     15  F    Isotropic =   295.7703   Anisotropy =   113.0523

     16  C    Isotropic =    61.5756   Anisotropy =   173.5216

     17  C    Isotropic =    60.7118   Anisotropy =   171.8500

     18  C    Isotropic =    80.0723   Anisotropy =   136.7182

     19  C    Isotropic =    32.6731   Anisotropy =    98.8187

     20  C    Isotropic =    79.9346   Anisotropy =   137.4300

     21  C    Isotropic =    59.0481   Anisotropy =   162.7742

     22  F    Isotropic =   295.8039   Anisotropy =   113.0081

     23  H    Isotropic =    25.4671   Anisotropy =     5.7354

     24  H    Isotropic =    25.3663   Anisotropy =    12.0261

     25  H    Isotropic =    24.6206   Anisotropy =     8.9295

     26  H    Isotropic =    25.3567   Anisotropy =     4.2629

     27  H    Isotropic =    25.3631   Anisotropy =    12.0121

     28  H    Isotropic =    25.4659   Anisotropy =     5.7374

     29  H    Isotropic =    25.3571   Anisotropy =     4.2578

     30  H    Isotropic =    24.6180   Anisotropy =     8.9116

     31  H    Isotropic =    25.3667   Anisotropy =    12.0203

     32  H    Isotropic =    25.4648   Anisotropy =     5.7393

     33  H    Isotropic =    25.3604   Anisotropy =     4.2563

     34  H    Isotropic =    24.6212   Anisotropy =     8.9201

  Exact polarizability: 226.235  -0.083 226.086   0.079   0.037 167.733
 Approx polarizability: 337.909  -0.181 337.660   0.177   0.077 314.889

                      1                      2                      3
                      A                      A                      A
 Frequencies --     24.3148                25.1281                37.4347
 Red. masses --      4.0972                 4.0907                 8.9225
 Frc consts  --      0.0014                 0.0015                 0.0074
 IR Inten    --      0.2505                 0.2468                 0.0982

                      4                      5                      6
                      A                      A                      A
 Frequencies --     37.5918                40.7104                50.5041
 Red. masses --      8.8710                 3.7470                 9.9515
 Frc consts  --      0.0074                 0.0037                 0.0150
 IR Inten    --      0.1029                 0.0066                 0.1144

                      7                      8                      9
                      A                      A                      A
 Frequencies --    133.0993               145.4319               145.8181
 Red. masses --      8.0536                 8.3694                 8.3750
 Frc consts  --      0.0841                 0.1043                 0.1049
 IR Inten    --      0.0229                 0.5200                 0.5139

                     10                     11                     12
                      A                      A                      A
 Frequencies --    208.9564               219.0608               219.1431
 Red. masses --      8.0464                 6.9868                 6.9903
 Frc consts  --      0.2070                 0.1975                 0.1978
 IR Inten    --      0.2909                 0.5256                 0.5283

                     13                     14                     15
                      A                      A                      A
 Frequencies --    307.9326               335.9990               336.1527
 Red. masses --      8.4332                 8.3043                 8.3097
 Frc consts  --      0.4711                 0.5524                 0.5532
 IR Inten    --      1.0296                 0.0439                 0.0447

                     16                     17                     18
                      A                      A                      A
 Frequencies --    397.1881               404.0987               404.1561
 Red. masses --      7.7333                 8.0391                 8.0049
 Frc consts  --      0.7188                 0.7734                 0.7704
 IR Inten    --      0.3051                10.0721                10.1028

                     19                     20                     21
                      A                      A                      A
 Frequencies --    420.6530               420.7589               424.7234
 Red. masses --      3.2813                 3.2786                 3.1354
 Frc consts  --      0.3421                 0.3420                 0.3332
 IR Inten    --      1.1027                 1.1344                 0.0271

                     22                     23                     24
                      A                      A                      A
 Frequencies --    435.0717               435.1051               463.5272
 Red. masses --      6.1563                 6.1467                 6.6443
 Frc consts  --      0.6866                 0.6856                 0.8411
 IR Inten    --     19.0153                19.0035                 7.3797

                     25                     26                     27
                      A                      A                      A
 Frequencies --    533.0451               533.2225               535.6242
 Red. masses --      2.8103                 2.8109                 2.9067
 Frc consts  --      0.4705                 0.4709                 0.4913
 IR Inten    --     21.8273                21.8540                13.5018

                     28                     29                     30
                      A                      A                      A
 Frequencies --    608.0674               629.9858               630.0264
 Red. masses --      7.9088                 7.8301                 7.8314
 Frc consts  --      1.7229                 1.8310                 1.8315
 IR Inten    --      0.0090                 0.0374                 0.0385

                     31                     32                     33
                      A                      A                      A
 Frequencies --    648.2088               648.3705               648.4095
 Red. masses --      7.2765                 7.3784                 7.3796
 Frc consts  --      1.8014                 1.8275                 1.8280
 IR Inten    --      0.0047                 0.1271                 0.1281

                     34                     35                     36
                      A                      A                      A
 Frequencies --    715.1971               715.6739               715.7973
 Red. masses --      4.8108                 4.8271                 4.8309
 Frc consts  --      1.4498                 1.4567                 1.4583
 IR Inten    --      1.0475                 3.9765                 3.9400

                     37                     38                     39
                      A                      A                      A
 Frequencies --    835.6955               835.7900               836.8166
 Red. masses --      1.2618                 1.2623                 1.3276
 Frc consts  --      0.5192                 0.5195                 0.5477
 IR Inten    --      0.5191                 0.5165                11.3329

                     40                     41                     42
                      A                      A                      A
 Frequencies --    839.5282               839.5970               839.7882
 Red. masses --      3.2322                 3.3110                 3.9892
 Frc consts  --      1.3422                 1.3752                 1.6576
 IR Inten    --     61.8917                60.4843                19.6462

                     43                     44                     45
                      A                      A                      A
 Frequencies --    843.6035               843.6925               844.0955
 Red. masses --      1.9777                 2.0050                 1.6766
 Frc consts  --      0.8293                 0.8409                 0.7038
 IR Inten    --     10.0969                 9.8497                12.2826

                     46                     47                     48
                      A                      A                      A
 Frequencies --    958.5631               958.7139               959.8595
 Red. masses --      1.2560                 1.2560                 1.2587
 Frc consts  --      0.6800                 0.6802                 0.6833
 IR Inten    --      0.1672                 0.1666                 0.3246

                     49                     50                     51
                      A                      A                      A
 Frequencies --    969.8196               969.9971               973.4676
 Red. masses --      1.3356                 1.3352                 1.3194
 Frc consts  --      0.7401                 0.7402                 0.7367
 IR Inten    --      0.0328                 0.0338                 0.3068

                     52                     53                     54
                      A                      A                      A
 Frequencies --   1034.7306              1034.7928              1035.1987
 Red. masses --      3.0278                 3.0328                 3.0239
 Frc consts  --      1.9100                 1.9134                 1.9093
 IR Inten    --      7.9886                 7.9004                 0.0949

                     55                     56                     57
                      A                      A                      A
 Frequencies --   1102.8772              1103.1725              1108.7276
 Red. masses --      3.6677                 3.6686                 3.5551
 Frc consts  --      2.6284                 2.6305                 2.5748
 IR Inten    --     19.2303                19.2306                 1.9210

                     58                     59                     60
                      A                      A                      A
 Frequencies --   1127.5783              1127.7754              1127.9253
 Red. masses --      1.3306                 1.3305                 1.3296
 Frc consts  --      0.9967                 0.9970                 0.9966
 IR Inten    --      1.1144                 1.7116                 6.1650

                     61                     62                     63
                      A                      A                      A
 Frequencies --   1195.2748              1195.6709              1199.4845
 Red. masses --      1.1836                 1.1855                 1.1801
 Frc consts  --      0.9963                 0.9986                 1.0004
 IR Inten    --     60.5476                61.2430                 2.5725

                     64                     65                     66
                      A                      A                      A
 Frequencies --   1285.3370              1285.4990              1286.1908
 Red. masses --      3.7546                 3.7432                 3.7858
 Frc consts  --      3.6546                 3.6445                 3.6899
 IR Inten    --    167.0595               166.3736                39.1672

                     67                     68                     69
                      A                      A                      A
 Frequencies --   1324.2036              1327.4364              1327.8118
 Red. masses --      2.7480                 2.2365                 2.3490
 Frc consts  --      2.8391                 2.3219                 2.4401
 IR Inten    --      8.8126                 3.9185                 3.8057

                     70                     71                     72
                      A                      A                      A
 Frequencies --   1336.7472              1336.9307              1337.2083
 Red. masses --      2.3141                 2.1720                 1.9615
 Frc consts  --      2.4363                 2.2873                 2.0665
 IR Inten    --      0.3554                 0.4083                 0.8160

                     73                     74                     75
                      A                      A                      A
 Frequencies --   1437.9695              1438.1362              1438.2621
 Red. masses --      2.9842                 2.9932                 2.9849
 Frc consts  --      3.6356                 3.6474                 3.6380
 IR Inten    --      7.1554                 2.3087                 2.6587

                     76                     77                     78
                      A                      A                      A
 Frequencies --   1545.6144              1545.7499              1546.5408
 Red. masses --      2.4077                 2.4038                 2.4441
 Frc consts  --      3.3889                 3.3839                 3.4442
 IR Inten    --    116.5039               116.5285                24.3060

                     79                     80                     81
                      A                      A                      A
 Frequencies --   1633.9665              1633.9770              1634.0352
 Red. masses --      6.9647                 6.9654                 6.9579
 Frc consts  --     10.9557                10.9569                10.9458
 IR Inten    --     10.0048                12.1753                12.6135

                     82                     83                     84
                      A                      A                      A
 Frequencies --   1653.5617              1653.5674              1654.4124
 Red. masses --      5.8057                 5.8063                 5.8774
 Frc consts  --      9.3530                 9.3540                 9.4781
 IR Inten    --     82.6095                82.7094                22.5486

                     85                     86                     87
                      A                      A                      A
 Frequencies --   3188.7370              3188.9467              3188.9740
 Red. masses --      1.0892                 1.0892                 1.0892
 Frc consts  --      6.5253                 6.5262                 6.5259
 IR Inten    --      5.0165                 5.8747                 2.5029

                     88                     89                     90
                      A                      A                      A
 Frequencies --   3205.6243              3205.6740              3206.3244
 Red. masses --      1.0878                 1.0878                 1.0879
 Frc consts  --      6.5862                 6.5864                 6.5896
 IR Inten    --      1.9782                 2.0049                 0.3843

                     91                     92                     93
                      A                      A                      A
 Frequencies --   3221.8783              3221.8913              3222.1265
 Red. masses --      1.0942                 1.0942                 1.0941
 Frc consts  --      6.6921                 6.6922                 6.6924
 IR Inten    --      3.2397                 3.2797                11.9776

                     94                     95                     96
                      A                      A                      A
 Frequencies --   3222.5972              3222.6579              3222.8659
 Red. masses --      1.0936                 1.0936                 1.0939
 Frc consts  --      6.6917                 6.6919                 6.6944
 IR Inten    --     12.1115                11.8057                 0.4213

 - Thermochemistry -
 -------------------
 Temperature   298.150 Kelvin.  Pressure   1.00000 Atm.
 Atom     1 has atomic number  6 and mass  12.00000

 Molecular mass:   316.06287 amu.
 Principal axes and moments of inertia in atomic units:
                           1         2         3
     Eigenvalues --  8314.620948321.91016**********
           X            0.99975  -0.02252   0.00002
           Y            0.02252   0.99975   0.00002
           Z           -0.00002  -0.00002   1.00000
 This molecule is an asymmetric top.
 Rotational symmetry number  1.
 Warning -- assumption of classical behavior for rotation
           may cause significant error
 Rotational temperatures (Kelvin)      0.01042     0.01041     0.00597
 Rotational constants (GHZ):           0.21706     0.21687     0.12430
 Zero-point vibrational energy     655301.6 (Joules/Mol)
                                  156.62085 (Kcal/Mol)
 Warning -- explicit consideration of  28 degrees of freedom as
           vibrations may cause significant error
 Vibrational temperatures:     34.98    36.15    53.86    54.09    58.57
          (Kelvin)             72.66   191.50   209.24   209.80   300.64
                              315.18   315.30   443.05   483.43   483.65
                              571.47   581.41   581.49   605.23   605.38
                              611.08   625.97   626.02   666.91   766.93
                              767.19   770.64   874.87   906.41   906.47
                              932.63   932.86   932.92  1029.01  1029.70
                             1029.87  1202.38  1202.52  1203.99  1207.89
                             1207.99  1208.27  1213.76  1213.89  1214.47
                             1379.16  1379.38  1381.02  1395.35  1395.61
                             1400.60  1488.75  1488.84  1489.42  1586.79
                             1587.22  1595.21  1622.33  1622.62  1622.83
                             1719.73  1720.30  1725.79  1849.31  1849.55
                             1850.54  1905.23  1909.88  1910.43  1923.28
                             1923.55  1923.94  2068.92  2069.16  2069.34
                             2223.79  2223.99  2225.13  2350.91  2350.93
                             2351.01  2379.11  2379.11  2380.33  4587.88
                             4588.18  4588.22  4612.18  4612.25  4613.19
                             4635.56  4635.58  4635.92  4636.60  4636.69
                             4636.99

 Zero-point correction=                           0.249591 (Hartree/Particle)
 Thermal correction to Energy=                    0.268018
 Thermal correction to Enthalpy=                  0.268962
 Thermal correction to Gibbs Free Energy=         0.199575
 Sum of electronic and zero-point Energies=          -1333.749387
 Sum of electronic and thermal Energies=             -1333.730960
 Sum of electronic and thermal Enthalpies=           -1333.730016
 Sum of electronic and thermal Free Energies=        -1333.799403

                     E (Thermal)             CV                S
                      KCal/Mol        Cal/Mol-Kelvin    Cal/Mol-Kelvin
 Total                  168.184             71.394            146.037
 Electronic               0.000              0.000              0.000
 Translational            0.889              2.981             43.148
 Rotational               0.889              2.981             35.262
 Vibrational            166.406             65.432             67.627
 Vibration     1          0.593              1.985              6.246
 Vibration     2          0.593              1.985              6.181
 Vibration     3          0.594              1.982              5.390
 Vibration     4          0.594              1.982              5.382
 Vibration     5          0.594              1.981              5.224
 Vibration     6          0.595              1.977              4.798
 Vibration     7          0.613              1.920              2.901
 Vibration     8          0.617              1.908              2.731
 Vibration     9          0.617              1.907              2.726
 Vibration    10          0.642              1.827              2.053
 Vibration    11          0.647              1.812              1.967
 Vibration    12          0.647              1.812              1.966
 Vibration    13          0.698              1.659              1.373
 Vibration    14          0.717              1.604              1.231
 Vibration    15          0.717              1.603              1.230
 Vibration    16          0.764              1.476              0.973
 Vibration    17          0.769              1.461              0.948
 Vibration    18          0.769              1.461              0.947
 Vibration    19          0.783              1.425              0.890
 Vibration    20          0.783              1.425              0.889
 Vibration    21          0.787              1.416              0.876
 Vibration    22          0.796              1.394              0.842
 Vibration    23          0.796              1.394              0.842
 Vibration    24          0.821              1.331              0.756
 Vibration    25          0.888              1.177              0.580
 Vibration    26          0.888              1.177              0.580
 Vibration    27          0.891              1.171              0.575
 Vibration    28          0.967              1.015              0.436

 Optimization completed on the basis of negligible forces.
    -- Stationary point found.
 Normal termination of Gaussian 16 at Sun Aug 23 18:40:23 2020.
 Gaussian 16:  ES64L-G16RevA.03 25-Dec-2016

 ----------------------------------------------------------------------
 # TD(NStates=10, Root=1) B3LYP/6-31G* scf=qc volume pop=NPA density=cu
 rrent Geom=AllCheck Guess=Read
 ----------------------------------------------------------------------

 Structure from the checkpoint file:  "phosphine_5_conf133.chk"
 -------------------
 Title Card Required
 -------------------
 Charge =  0 Multiplicity = 1

                         Standard orientation:
 ---------------------------------------------------------------------
 Center     Atomic      Atomic             Coordinates (Angstroms)
 Number     Number       Type             X           Y           Z
 ---------------------------------------------------------------------
      1          6           0       -2.416853   -2.323694   -1.127744
      2          6           0       -1.307903   -1.659380   -0.601807
      3          6           0       -1.409513   -0.895702    0.571889
      4          6           0       -2.657646   -0.824102    1.215037
      5          6           0       -3.778169   -1.471397    0.697604
      6          6           0       -3.635802   -2.214228   -0.469209
      7          9           0       -4.711321   -2.853679   -0.972559
      8         15           0        0.000049   -0.000726    1.374921
      9          6           0        1.480205   -0.773076    0.571707
     10          6           0        2.086447   -0.306078   -0.605367
     11          6           0        3.216683   -0.933069   -1.131700
     12          6           0        3.736261   -2.039322   -0.470024
     13          6           0        3.168509   -2.531122    0.700128
     14          6           0        2.046985   -1.885662    1.217785
     15          9           0        4.828374   -2.649726   -0.973678
     16          6           0       -0.070779    1.667518    0.572065
     17          6           0       -0.781211    1.960277   -0.602950
     18          6           0       -0.802514    3.252607   -1.129332
     19          6           0       -0.100428    4.254435   -0.469834
     20          6           0        0.612271    4.007396    0.698298
     21          6           0        0.613115    2.713476    1.216103
     22          9           0       -0.116864    5.505429   -0.973566
     23          1           0       -2.347612   -2.919473   -2.032295
     24          1           0       -0.353182   -1.744481   -1.111552
     25          1           0       -2.754567   -0.256989    2.137615
     26          1           0       -4.745382   -1.418833    1.186774
     27          1           0        1.678896    0.560194   -1.117286
     28          1           0        3.694763   -0.577389   -2.038829
     29          1           0        3.610351   -3.391808    1.191603
     30          1           0        1.607587   -2.250756    2.142872
     31          1           0       -1.330483    1.175135   -1.113268
     32          1           0       -1.351748    3.489695   -2.034918
     33          1           0        1.139672    4.819455    1.188145
     34          1           0        1.151319    2.514656    2.139662
 ---------------------------------------------------------------------

 SCF Done:  E(RB3LYP) =  -1333.99897773     a.u. after    1 cycles

 Excitation energies and oscillator strengths:

 Excited State   1:      Singlet-A      4.5732 eV  271.11 nm  f=0.1353  <S**2>=0.000
      81 -> 82         0.69384
 This state for optimization and/or second-order correction.
 Total Energy, E(TD-HF/TD-DFT) =  -1333.83091401
 Copying the excited state density for this state as the 1-particle RhoCI density.

 Excited State   2:      Singlet-A      4.5755 eV  270.98 nm  f=0.1357  <S**2>=0.000
      81 -> 83         0.69338

 Excited State   3:      Singlet-A      4.5861 eV  270.35 nm  f=0.0093  <S**2>=0.000
      81 -> 84         0.68888

 Excited State   4:      Singlet-A      4.9052 eV  252.76 nm  f=0.0018  <S**2>=0.000
      81 -> 85         0.67604

 Excited State   5:      Singlet-A      4.9062 eV  252.71 nm  f=0.0017  <S**2>=0.000
      81 -> 86         0.67580

 Excited State   6:      Singlet-A      5.2393 eV  236.64 nm  f=0.0075  <S**2>=0.000
      79 -> 82         0.10370
      80 -> 83         0.10421
      81 -> 87         0.67232

 Excited State   7:      Singlet-A      5.4170 eV  228.88 nm  f=0.0000  <S**2>=0.000
      75 -> 84        -0.14210
      77 -> 82        -0.17879
      78 -> 83         0.16615
      79 -> 82         0.28585
      79 -> 83         0.29131
      79 -> 85         0.14893
      80 -> 82        -0.29040
      80 -> 83         0.28288
      80 -> 86         0.14042

 Excited State   8:      Singlet-A      5.4451 eV  227.70 nm  f=0.0020  <S**2>=0.000
      76 -> 82         0.20980
      77 -> 82         0.16557
      77 -> 87         0.12204
      78 -> 83         0.17906
      79 -> 84         0.28861
      79 -> 85        -0.13361
      80 -> 84         0.40994
      80 -> 86         0.14326
      81 -> 85        -0.12318

 Excited State   9:      Singlet-A      5.4458 eV  227.67 nm  f=0.0021  <S**2>=0.000
      76 -> 83        -0.20809
      77 -> 83         0.17026
      78 -> 82        -0.17152
      78 -> 87         0.12207
      79 -> 84         0.40711
      79 -> 86        -0.13857
      80 -> 84        -0.29299
      80 -> 85        -0.13929
      81 -> 86         0.12390

 Excited State  10:      Singlet-A      5.6624 eV  218.96 nm  f=0.0016  <S**2>=0.000
      75 -> 84        -0.16461
      76 -> 84        -0.10236
      77 -> 82        -0.24723
      78 -> 83         0.23822
      79 -> 82        -0.10620
      79 -> 83        -0.23837
      79 -> 85         0.22041
      79 -> 86        -0.11806
      80 -> 82         0.33113
      80 -> 85         0.11837
      80 -> 86         0.23175

 The electronic state is 1-A.
 Alpha  occ. eigenvalues --  -77.09285 -24.70935 -24.70932 -24.70931 -10.27932
 Alpha  occ. eigenvalues --  -10.27928 -10.27927 -10.20803 -10.20800 -10.20800
 Alpha  occ. eigenvalues --  -10.20702 -10.20699 -10.20699 -10.20479 -10.20478
 Alpha  occ. eigenvalues --  -10.20477 -10.20318 -10.20316 -10.20315 -10.20310
 Alpha  occ. eigenvalues --  -10.20308 -10.20308  -6.55986  -4.72248  -4.72248
 Alpha  occ. eigenvalues --   -4.71743  -1.22114  -1.22110  -1.22109  -0.87207
 Alpha  occ. eigenvalues --   -0.86556  -0.86554  -0.77802  -0.76322  -0.76286
 Alpha  occ. eigenvalues --   -0.76285  -0.74868  -0.74866  -0.65458  -0.63138
 Alpha  occ. eigenvalues --   -0.62959  -0.62958  -0.60998  -0.60997  -0.57074
 Alpha  occ. eigenvalues --   -0.54665  -0.54664  -0.54254  -0.49447  -0.49445
 Alpha  occ. eigenvalues --   -0.49381  -0.48019  -0.48018  -0.46311  -0.46308
 Alpha  occ. eigenvalues --   -0.46296  -0.45864  -0.44921  -0.44921  -0.43857
 Alpha  occ. eigenvalues --   -0.43706  -0.43705  -0.42082  -0.40157  -0.40108
 Alpha  occ. eigenvalues --   -0.40107  -0.37161  -0.37157  -0.36439  -0.34998
 Alpha  occ. eigenvalues --   -0.34996  -0.34951  -0.33923  -0.33922  -0.27232
 Alpha  occ. eigenvalues --   -0.26849  -0.26600  -0.26597  -0.25426  -0.25420
 Alpha  occ. eigenvalues --   -0.21918
 Alpha virt. eigenvalues --   -0.02513  -0.02507  -0.02414  -0.01174  -0.01170
 Alpha virt. eigenvalues --   -0.00311   0.05879   0.05890   0.08467   0.10088
 Alpha virt. eigenvalues --    0.10089   0.12848   0.13529   0.13531   0.14052

 Mulliken charges:
               1
     1  C   -0.189992
     2  C   -0.151295
     3  C   -0.097201
     4  C   -0.174851
     5  C   -0.180317
     6  C    0.377554
     7  F   -0.287921
     8  P    0.435394
     9  C   -0.127890
    10  C   -0.183711
    11  C   -0.181746
    12  C    0.337907
    13  C   -0.192543
    14  C   -0.169431
    15  F   -0.305735
    16  C   -0.084352
    17  C   -0.169138
    18  C   -0.180566
    19  C    0.378195
    20  C   -0.192873
    21  C   -0.153759
    22  F   -0.288282
    23  H    0.158076
    24  H    0.177312
    25  H    0.146535
    26  H    0.154091
    27  H    0.131020
    28  H    0.136750
    29  H    0.133489
    30  H    0.126148
    31  H    0.155809
    32  H    0.156311
    33  H    0.154086
    34  H    0.152925
 Sum of Mulliken charges =  -0.00000

 Dipole moment (field-independent basis, Debye):
    X=             -2.8987    Y=              1.3726    Z=              1.4569  Tot=              3.5227
 Quadrupole moment (field-independent basis, Debye-Ang):
   XX=           -142.8176   YY=           -136.2114   ZZ=           -121.8290
   XY=              5.2964   XZ=              0.7697   YZ=              0.4129

 Summary of Natural Population Analysis:

                                       Natural Population
                Natural  -----------------------------------------------
    Atom  No    Charge         Core      Valence    Rydberg      Total
 -----------------------------------------------------------------------
      C    1   -0.30701      1.99898     4.29291    0.01512     6.30701
      C    2   -0.19162      1.99901     4.17642    0.01620     6.19162
      C    3   -0.42367      1.99890     4.39846    0.02632     6.42367
      C    4   -0.21840      1.99903     4.20334    0.01603     6.21840
      C    5   -0.29518      1.99899     4.28140    0.01480     6.29518
      C    6    0.43300      1.99844     3.54115    0.02741     5.56700
      F    7   -0.32457      1.99994     7.31905    0.00558     9.32457
      P    8    1.21000      9.99756     3.74087    0.05156    13.79000
      C    9   -0.49077      1.99887     4.46601    0.02590     6.49077
      C   10   -0.26380      1.99900     4.24636    0.01844     6.26380
      C   11   -0.28943      1.99899     4.27545    0.01499     6.28943
      C   12    0.36830      1.99844     3.60517    0.02809     5.63170
      C   13   -0.31680      1.99900     4.30202    0.01579     6.31680
      C   14   -0.21154      1.99903     4.19654    0.01597     6.21154
      F   15   -0.34032      1.99994     7.33489    0.00548     9.34032
      C   16   -0.40362      1.99889     4.38051    0.02422     6.40362
      C   17   -0.23469      1.99901     4.21839    0.01730     6.23469
      C   18   -0.28988      1.99898     4.27620    0.01470     6.28988
      C   19    0.43503      1.99844     3.53919    0.02734     5.56497
      C   20   -0.31898      1.99899     4.30431    0.01569     6.31898
      C   21   -0.18274      1.99903     4.16855    0.01516     6.18274
      F   22   -0.32479      1.99994     7.31929    0.00556     9.32479
      H   23    0.25729      0.00000     0.74153    0.00118     0.74271
      H   24    0.26206      0.00000     0.73654    0.00140     0.73794
      H   25    0.24100      0.00000     0.75796    0.00104     0.75900
      H   26    0.25447      0.00000     0.74430    0.00123     0.74553
      H   27    0.23641      0.00000     0.76200    0.00158     0.76359
      H   28    0.24682      0.00000     0.75197    0.00121     0.75318
      H   29    0.24517      0.00000     0.75362    0.00121     0.75483
      H   30    0.23070      0.00000     0.76837    0.00093     0.76930
      H   31    0.25063      0.00000     0.74811    0.00126     0.74937
      H   32    0.25611      0.00000     0.74270    0.00119     0.74389
      H   33    0.25526      0.00000     0.74357    0.00117     0.74474
      H   34    0.24556      0.00000     0.75320    0.00124     0.75444
 =======================================================================
   * Total *    0.00000     51.97740   109.59033    0.43227   162.00000

 Normal termination of Gaussian 16 at Sun Aug 23 18:54:48 2020.
