 Gaussian 16, Revision A.03,

 ---------------------------------
 # opt=CalcAll B3LYP/6-31G* scf=qc
 ---------------------------------

 -------------------
 Title Card Required
 -------------------
 Symbolic Z-matrix:
 Charge =  0 Multiplicity = 1

 SCF Done:  E(RB3LYP) =  -1029.60341727     a.u. after    9 cycles
 SCF Done:  E(RB3LYP) =  -1029.61902046     a.u. after   17 cycles
 SCF Done:  E(RB3LYP) =  -1029.62366074     a.u. after   19 cycles
 SCF Done:  E(RB3LYP) =  -1029.62556916     a.u. after   17 cycles
 SCF Done:  E(RB3LYP) =  -1029.62614562     a.u. after   17 cycles
 SCF Done:  E(RB3LYP) =  -1029.62614363     a.u. after   17 cycles
 SCF Done:  E(RB3LYP) =  -1029.62646405     a.u. after   13 cycles
 SCF Done:  E(RB3LYP) =  -1029.62649700     a.u. after   13 cycles
 SCF Done:  E(RB3LYP) =  -1029.62652161     a.u. after    9 cycles
 SCF Done:  E(RB3LYP) =  -1029.62652303     a.u. after    5 cycles
 SCF Done:  E(RB3LYP) =  -1029.62652627     a.u. after    4 cycles
 SCF Done:  E(RB3LYP) =  -1029.62652824     a.u. after    9 cycles
 SCF Done:  E(RB3LYP) =  -1029.62652602     a.u. after   13 cycles
 SCF Done:  E(RB3LYP) =  -1029.62652107     a.u. after   10 cycles
 SCF Done:  E(RB3LYP) =  -1029.62652601     a.u. after    4 cycles
 SCF Done:  E(RB3LYP) =  -1029.62652624     a.u. after    9 cycles
 SCF Done:  E(RB3LYP) =  -1029.62652682     a.u. after    7 cycles
 SCF Done:  E(RB3LYP) =  -1029.62652683     a.u. after    2 cycles
 Optimization completed on the basis of negligible forces.
    -- Stationary point found.
 Normal termination of Gaussian 16 at Sun Aug 23 18:43:01 2020.

 ----------------------------------------------------------------------
 # freq B3LYP/6-31G* scf=qc volume NMR pop=NPA density=current Geom=All
 Check Guess=Read
 ----------------------------------------------------------------------

 Structure from the checkpoint file:  "phosphine_9_conf222.chk"
 -------------------
 Title Card Required
 -------------------
 Charge =  0 Multiplicity = 1

 SCF Done:  E(RB3LYP) =  -1029.62652683     a.u. after    1 cycles

      1  C    Isotropic =    84.4934   Anisotropy =   119.2577

      2  C    Isotropic =    73.0230   Anisotropy =   130.3480

      3  C    Isotropic =    44.1482   Anisotropy =    85.3134

      4  O    Isotropic =    35.5327   Anisotropy =   287.8675

      5  C    Isotropic =    52.8355   Anisotropy =    98.4003

      6  P    Isotropic =   455.7790   Anisotropy =    30.8477

      7  C    Isotropic =    44.5175   Anisotropy =    90.9062

      8  C    Isotropic =    73.4580   Anisotropy =   124.0376

      9  C    Isotropic =    85.3576   Anisotropy =   118.3431

     10  C    Isotropic =    50.8612   Anisotropy =    98.7103

     11  O    Isotropic =    39.6596   Anisotropy =   298.8634

     12  C    Isotropic =    44.5166   Anisotropy =    90.9028

     13  C    Isotropic =    73.4581   Anisotropy =   124.0312

     14  C    Isotropic =    85.3573   Anisotropy =   118.3487

     15  C    Isotropic =    50.8608   Anisotropy =    98.7083

     16  O    Isotropic =    39.6711   Anisotropy =   298.8327

     17  H    Isotropic =    26.0002   Anisotropy =     2.2746

     18  H    Isotropic =    24.7457   Anisotropy =     6.4576

     19  H    Isotropic =    24.9922   Anisotropy =     3.5991

     20  H    Isotropic =    25.7058   Anisotropy =     5.0005

     21  H    Isotropic =    26.2050   Anisotropy =     2.5722

     22  H    Isotropic =    24.7668   Anisotropy =     4.1206

     23  H    Isotropic =    25.7057   Anisotropy =     5.0008

     24  H    Isotropic =    26.2046   Anisotropy =     2.5719

     25  H    Isotropic =    24.7664   Anisotropy =     4.1204

  Exact polarizability: 153.337  -0.009 151.661  -1.755  -0.022 138.769
 Approx polarizability: 210.770  -0.020 210.574  -2.216  -0.058 260.645

                      1                      2                      3
                      A                      A                      A
 Frequencies --     10.8377                41.4974                49.1208
 Red. masses --      4.5587                 4.7163                 4.8606
 Frc consts  --      0.0003                 0.0048                 0.0069
 IR Inten    --      0.3186                 0.1243                 0.7552

                      4                      5                      6
                      A                      A                      A
 Frequencies --     57.8100                58.2563                83.2226
 Red. masses --      5.6538                 5.5184                 5.7222
 Frc consts  --      0.0111                 0.0110                 0.0234
 IR Inten    --      0.4695                 0.0074                 0.6055

                      7                      8                      9
                      A                      A                      A
 Frequencies --    175.4984               215.9194               234.9945
 Red. masses --      5.7754                 6.1810                 5.6446
 Frc consts  --      0.1048                 0.1698                 0.1837
 IR Inten    --      0.0005                 0.3353                 1.1704

                     10                     11                     12
                      A                      A                      A
 Frequencies --    288.9846               295.9942               301.2347
 Red. masses --      7.0020                 5.8892                 5.7612
 Frc consts  --      0.3445                 0.3040                 0.3080
 IR Inten    --      4.5608                 7.2892                 4.7482

                     13                     14                     15
                      A                      A                      A
 Frequencies --    488.0531               491.8404               501.0226
 Red. masses --     14.5278                14.8913                13.1977
 Frc consts  --      2.0388                 2.1224                 1.9519
 IR Inten    --     58.8384                55.8781                21.2506

                     16                     17                     18
                      A                      A                      A
 Frequencies --    610.4431               610.5135               612.3202
 Red. masses --      3.1964                 3.2471                 3.2578
 Frc consts  --      0.7018                 0.7131                 0.7197
 IR Inten    --      7.1472                 4.1496                10.3959

                     19                     20                     21
                      A                      A                      A
 Frequencies --    644.5981               666.3724               673.6848
 Red. masses --      5.8884                 5.7823                 6.1911
 Frc consts  --      1.4415                 1.5128                 1.6555
 IR Inten    --      0.0631                 4.7649                 4.2067

                     22                     23                     24
                      A                      A                      A
 Frequencies --    755.6732               757.4050               757.7194
 Red. masses --      1.2897                 1.2865                 1.2887
 Frc consts  --      0.4339                 0.4348                 0.4359
 IR Inten    --     14.1860                53.7754                61.3872

                     25                     26                     27
                      A                      A                      A
 Frequencies --    825.2286               828.2692               829.4294
 Red. masses --      1.2523                 1.2484                 1.2518
 Frc consts  --      0.5025                 0.5046                 0.5074
 IR Inten    --      6.4635                 6.4094                11.7335

                     28                     29                     30
                      A                      A                      A
 Frequencies --    878.6068               879.1687               879.8256
 Red. masses --      1.3113                 1.3072                 1.3082
 Frc consts  --      0.5964                 0.5953                 0.5966
 IR Inten    --      1.1926                 0.5906                 0.9176

                     31                     32                     33
                      A                      A                      A
 Frequencies --    899.2543               900.2506               900.8074
 Red. masses --      6.2520                 6.3612                 6.2761
 Frc consts  --      2.9787                 3.0375                 3.0005
 IR Inten    --      5.5944                 1.1477                 5.5149

                     34                     35                     36
                      A                      A                      A
 Frequencies --    922.2614               923.2670               925.8618
 Red. masses --      4.7825                 4.7940                 4.6801
 Frc consts  --      2.3967                 2.4077                 2.3637
 IR Inten    --      5.2685                 7.9538                17.1780

                     37                     38                     39
                      A                      A                      A
 Frequencies --   1036.9743              1037.6286              1038.1713
 Red. masses --      1.4011                 1.4147                 1.4228
 Frc consts  --      0.8877                 0.8974                 0.9035
 IR Inten    --     42.9073                 3.2686                51.5344

                     40                     41                     42
                      A                      A                      A
 Frequencies --   1100.6410              1101.4472              1104.3341
 Red. masses --      2.4121                 2.3695                 2.1799
 Frc consts  --      1.7216                 1.6937                 1.5663
 IR Inten    --      0.2241                 2.0720                 2.4493

                     43                     44                     45
                      A                      A                      A
 Frequencies --   1140.6031              1149.4961              1152.2944
 Red. masses --      5.5184                 5.2622                 6.0951
 Frc consts  --      4.2299                 4.0967                 4.7683
 IR Inten    --      8.9224                22.1389                12.6376

                     46                     47                     48
                      A                      A                      A
 Frequencies --   1191.7008              1192.1955              1198.2611
 Red. masses --      2.1796                 2.1123                 2.1870
 Frc consts  --      1.8237                 1.7689                 1.8502
 IR Inten    --      4.5694                 9.1143                 4.6064

                     49                     50                     51
                      A                      A                      A
 Frequencies --   1247.4845              1249.8884              1255.9779
 Red. masses --      1.6511                 1.6274                 1.6649
 Frc consts  --      1.5139                 1.4979                 1.5474
 IR Inten    --      7.4956                 1.2217                20.2591

                     52                     53                     54
                      A                      A                      A
 Frequencies --   1419.3385              1419.9973              1422.6885
 Red. masses --      2.5024                 2.5524                 2.6291
 Frc consts  --      2.9701                 3.0323                 3.1353
 IR Inten    --      0.4080                 1.2018                10.2107

                     55                     56                     57
                      A                      A                      A
 Frequencies --   1487.0999              1491.2933              1502.2217
 Red. masses --      5.2765                 5.5438                 5.4801
 Frc consts  --      6.8751                 7.2642                 7.2863
 IR Inten    --     21.7197                 0.7419                18.6003

                     58                     59                     60
                      A                      A                      A
 Frequencies --   1606.7957              1608.2824              1611.5386
 Red. masses --      4.8604                 4.7836                 4.9098
 Frc consts  --      7.3935                 7.2901                 7.5127
 IR Inten    --      2.7454                 2.9327                 4.1728

                     61                     62                     63
                      A                      A                      A
 Frequencies --   3263.8550              3264.3544              3264.4043
 Red. masses --      1.0907                 1.0903                 1.0903
 Frc consts  --      6.8457                 6.8451                 6.8454
 IR Inten    --      4.6446                 3.7780                 1.9962

                     64                     65                     66
                      A                      A                      A
 Frequencies --   3275.8194              3275.9313              3288.7635
 Red. masses --      1.0968                 1.0968                 1.0966
 Frc consts  --      6.9342                 6.9352                 6.9881
 IR Inten    --      0.7629                 1.8945                 0.3583

                     67                     68                     69
                      A                      A                      A
 Frequencies --   3296.5079              3296.5909              3297.8325
 Red. masses --      1.1055                 1.1055                 1.1049
 Frc consts  --      7.0778                 7.0782                 7.0802
 IR Inten    --      2.5322                 2.8373                 2.5111

 - Thermochemistry -
 -------------------
 Temperature   298.150 Kelvin.  Pressure   1.00000 Atm.
 Atom     1 has atomic number  6 and mass  12.00000

 Molecular mass:   232.02893 amu.
 Principal axes and moments of inertia in atomic units:
                           1         2         3
     Eigenvalues --  3529.979683711.246425768.19144
           X            0.99994  -0.00012  -0.01057
           Y            0.00012   1.00000  -0.00002
           Z            0.01057   0.00002   0.99994
 This molecule is an asymmetric top.
 Rotational symmetry number  1.
 Warning -- assumption of classical behavior for rotation
           may cause significant error
 Rotational temperatures (Kelvin)      0.02454     0.02334     0.01502
 Rotational constants (GHZ):           0.51126     0.48629     0.31288
 Zero-point vibrational energy     480095.3 (Joules/Mol)
                                  114.74552 (Kcal/Mol)
 Warning -- explicit consideration of  18 degrees of freedom as
           vibrations may cause significant error
 Vibrational temperatures:     15.59    59.71    70.67    83.18    83.82
          (Kelvin)            119.74   252.50   310.66   338.10   415.78
                              425.87   433.41   702.20   707.65   720.86
                              878.29   878.39   880.99   927.43   958.76
                              969.28  1087.25  1089.74  1090.19  1187.32
                             1191.69  1193.36  1264.12  1264.93  1265.87
                             1293.83  1295.26  1296.06  1326.93  1328.38
                             1332.11  1491.97  1492.92  1493.70  1583.58
                             1584.74  1588.89  1641.07  1653.87  1657.89
                             1714.59  1715.30  1724.03  1794.85  1798.31
                             1807.07  2042.11  2043.06  2046.93  2139.61
                             2145.64  2161.36  2311.82  2313.96  2318.64
                             4695.96  4696.68  4696.75  4713.17  4713.33
                             4731.80  4742.94  4743.06  4744.85

 Zero-point correction=                           0.182859 (Hartree/Particle)
 Thermal correction to Energy=                    0.196504
 Thermal correction to Enthalpy=                  0.197448
 Thermal correction to Gibbs Free Energy=         0.138507
 Sum of electronic and zero-point Energies=          -1029.443668
 Sum of electronic and thermal Energies=             -1029.430023
 Sum of electronic and thermal Enthalpies=           -1029.429078
 Sum of electronic and thermal Free Energies=        -1029.488020

                     E (Thermal)             CV                S
                      KCal/Mol        Cal/Mol-Kelvin    Cal/Mol-Kelvin
 Total                  123.308             50.755            124.053
 Electronic               0.000              0.000              0.000
 Translational            0.889              2.981             42.227
 Rotational               0.889              2.981             32.691
 Vibrational            121.531             44.794             49.135
 Vibration     1          0.593              1.987              7.851
 Vibration     2          0.594              1.981              5.186
 Vibration     3          0.595              1.978              4.852
 Vibration     4          0.596              1.974              4.531
 Vibration     5          0.596              1.974              4.515
 Vibration     6          0.600              1.961              3.813
 Vibration     7          0.627              1.873              2.376
 Vibration     8          0.645              1.817              1.993
 Vibration     9          0.655              1.787              1.840
 Vibration    10          0.686              1.694              1.480
 Vibration    11          0.690              1.681              1.439
 Vibration    12          0.693              1.671              1.410
 Vibration    13          0.844              1.277              0.689
 Vibration    14          0.848              1.268              0.679
 Vibration    15          0.856              1.248              0.656
 Vibration    16          0.969              1.010              0.432
 Vibration    17          0.970              1.010              0.432
 Vibration    18          0.972              1.006              0.429

 Optimization completed on the basis of negligible forces.
    -- Stationary point found.
 Normal termination of Gaussian 16 at Sun Aug 23 18:49:25 2020.
 Gaussian 16:  ES64L-G16RevA.03 25-Dec-2016

 ----------------------------------------------------------------------
 # TD(NStates=10, Root=1) B3LYP/6-31G* scf=qc volume pop=NPA density=cu
 rrent Geom=AllCheck Guess=Read
 ----------------------------------------------------------------------

 Structure from the checkpoint file:  "phosphine_9_conf223.chk"
 -------------------
 Title Card Required
 -------------------
 Charge =  0 Multiplicity = 1

                         Standard orientation:
 ---------------------------------------------------------------------
 Center     Atomic      Atomic             Coordinates (Angstroms)
 Number     Number       Type             X           Y           Z
 ---------------------------------------------------------------------
      1          6           0       -3.407590   -0.006104    1.139182
      2          6           0       -1.979169   -0.004634    1.103296
      3          6           0       -1.612681   -0.002693   -0.216723
      4          8           0       -2.749249   -0.002895   -1.000039
      5          6           0       -3.815866   -0.004944   -0.161792
      6         15           0       -0.046338   -0.000036   -1.154019
      7          6           0        0.824014    1.418931   -0.420901
      8          6           0        1.432927    2.473566   -1.048489
      9          6           0        1.968475    3.318352   -0.026003
     10          6           0        1.647716    2.719672    1.154806
     11          8           0        0.956494    1.569256    0.942157
     12          6           0        0.828545   -1.416331   -0.421145
     13          6           0        1.440500   -2.469087   -1.048923
     14          6           0        1.978949   -3.312238   -0.026611
     15          6           0        1.656734   -2.714555    1.154303
     16          8           0        0.961927   -1.566253    0.941878
     17          1           0       -4.043622   -0.007792    2.013759
     18          1           0       -1.298308   -0.004957    1.941867
     19          1           0       -4.785381   -0.005334   -0.637386
     20          1           0        1.487487    2.623477   -2.117996
     21          1           0        2.514480    4.242719   -0.153173
     22          1           0        1.829317    2.972148    2.189110
     23          1           0        1.495203   -2.618815   -2.118449
     24          1           0        2.527753   -4.234922   -0.153961
     25          1           0        1.839455   -2.966466    2.188548
 ---------------------------------------------------------------------

 SCF Done:  E(RB3LYP) =  -1029.62652683     a.u. after    1 cycles

 Excitation energies and oscillator strengths:

 Excited State   1:      Singlet-A      4.8578 eV  255.23 nm  f=0.0716  <S**2>=0.000
      59 -> 61         0.18135
      60 -> 61         0.67551
 This state for optimization and/or second-order correction.
 Total Energy, E(TD-HF/TD-DFT) =  -1029.44800679
 Copying the excited state density for this state as the 1-particle RhoCI density.

 Excited State   2:      Singlet-A      4.9666 eV  249.64 nm  f=0.1357  <S**2>=0.000
      58 -> 61         0.13125
      59 -> 62        -0.13791
      60 -> 62         0.67665

 Excited State   3:      Singlet-A      5.2166 eV  237.67 nm  f=0.0230  <S**2>=0.000
      58 -> 62        -0.40956
      59 -> 61         0.56225

 Excited State   4:      Singlet-A      5.3788 eV  230.50 nm  f=0.1909  <S**2>=0.000
      58 -> 61        -0.42244
      59 -> 62         0.52628
      60 -> 62         0.18092

 Excited State   5:      Singlet-A      5.4699 eV  226.67 nm  f=0.2765  <S**2>=0.000
      58 -> 62         0.55962
      59 -> 61         0.37892
      60 -> 61        -0.17180

 Excited State   6:      Singlet-A      5.5768 eV  222.32 nm  f=0.0241  <S**2>=0.000
      57 -> 61         0.68753

 Excited State   7:      Singlet-A      5.6090 eV  221.05 nm  f=0.0049  <S**2>=0.000
      57 -> 62         0.69773

 Excited State   8:      Singlet-A      5.6658 eV  218.83 nm  f=0.0432  <S**2>=0.000
      57 -> 61         0.13939
      58 -> 61         0.47036
      59 -> 62         0.34810
      60 -> 63        -0.35217

 Excited State   9:      Singlet-A      6.3475 eV  195.33 nm  f=0.0593  <S**2>=0.000
      56 -> 62        -0.21389
      58 -> 61         0.23832
      59 -> 62         0.23846
      60 -> 63         0.54713
      60 -> 64        -0.12822

 Excited State  10:      Singlet-A      6.3622 eV  194.88 nm  f=0.0104  <S**2>=0.000
      56 -> 61         0.68862
      60 -> 65        -0.10547

 The electronic state is 1-A.
 Alpha  occ. eigenvalues --  -77.09958 -19.21325 -19.21323 -19.21096 -10.23901
 Alpha  occ. eigenvalues --  -10.23900 -10.23453 -10.23373 -10.23371 -10.23004
 Alpha  occ. eigenvalues --  -10.19060 -10.19059 -10.18774 -10.18773 -10.18439
 Alpha  occ. eigenvalues --  -10.18393  -6.56605  -4.72873  -4.72862  -4.72377
 Alpha  occ. eigenvalues --   -1.10529  -1.10309  -1.10149  -0.79842  -0.79679
 Alpha  occ. eigenvalues --   -0.79332  -0.77196  -0.73720  -0.73489  -0.64603
 Alpha  occ. eigenvalues --   -0.59956  -0.59449  -0.59147  -0.55941  -0.55568
 Alpha  occ. eigenvalues --   -0.54613  -0.53018  -0.52810  -0.48845  -0.45155
 Alpha  occ. eigenvalues --   -0.44895  -0.43793  -0.43303  -0.42986  -0.41514
 Alpha  occ. eigenvalues --   -0.40340  -0.40298  -0.39581  -0.38684  -0.38371
 Alpha  occ. eigenvalues --   -0.37093  -0.35916  -0.35314  -0.27892  -0.27716
 Alpha  occ. eigenvalues --   -0.27268  -0.25510  -0.23602  -0.23309  -0.21471
 Alpha virt. eigenvalues --   -0.01375  -0.01154   0.02817   0.05766   0.06516
 Alpha virt. eigenvalues --    0.07626   0.08249   0.09395   0.10059   0.12446
 Alpha virt. eigenvalues --    0.13174   0.13324   0.13857   0.14936   0.15885

 Mulliken charges:
               1
     1  C   -0.168323
     2  C   -0.125983
     3  C    0.185027
     4  O   -0.386203
     5  C    0.153860
     6  P    0.270426
     7  C    0.077124
     8  C   -0.196968
     9  C   -0.174955
    10  C    0.059710
    11  O   -0.434131
    12  C    0.076993
    13  C   -0.197005
    14  C   -0.174970
    15  C    0.059595
    16  O   -0.434234
    17  H    0.187805
    18  H    0.223801
    19  H    0.211168
    20  H    0.131136
    21  H    0.127408
    22  H    0.135199
    23  H    0.131062
    24  H    0.127342
    25  H    0.135119
 Sum of Mulliken charges =  -0.00000

 Dipole moment (field-independent basis, Debye):
    X=             -6.8823    Y=             -0.0049    Z=              2.4053  Tot=              7.2906
 Quadrupole moment (field-independent basis, Debye-Ang):
   XX=            -73.6792   YY=            -97.4304   ZZ=            -93.3143
   XY=              0.0464   XZ=             -3.1167   YZ=             -0.0080

 Summary of Natural Population Analysis:

                                       Natural Population
                Natural  -----------------------------------------------
    Atom  No    Charge         Core      Valence    Rydberg      Total
 -----------------------------------------------------------------------
      C    1   -0.29933      1.99912     4.28709    0.01312     6.29933
      C    2   -0.23747      1.99897     4.22270    0.01580     6.23747
      C    3    0.13573      1.99899     3.82641    0.03887     5.86427
      O    4   -0.45701      1.99975     6.43839    0.01886     8.45701
      C    5    0.23778      1.99907     3.74080    0.02234     5.76222
      P    6    0.80328      9.99806     4.13282    0.06584    14.19672
      C    7   -0.11309      1.99885     4.07748    0.03676     6.11309
      C    8   -0.32378      1.99892     4.30958    0.01527     6.32378
      C    9   -0.32960      1.99908     4.31739    0.01313     6.32960
      C   10    0.07017      1.99905     3.90532    0.02547     5.92983
      O   11   -0.49104      1.99974     6.47681    0.01448     8.49104
      C   12   -0.11336      1.99885     4.07776    0.03675     6.11336
      C   13   -0.32384      1.99892     4.30965    0.01527     6.32384
      C   14   -0.32965      1.99908     4.31744    0.01313     6.32965
      C   15    0.06999      1.99905     3.90550    0.02547     5.93001
      O   16   -0.49114      1.99974     6.47691    0.01448     8.49114
      H   17    0.26662      0.00000     0.73300    0.00038     0.73338
      H   18    0.28907      0.00000     0.71009    0.00084     0.71093
      H   19    0.24489      0.00000     0.75486    0.00025     0.75511
      H   20    0.24273      0.00000     0.75676    0.00051     0.75727
      H   21    0.23987      0.00000     0.75969    0.00044     0.76013
      H   22    0.21334      0.00000     0.78607    0.00059     0.78666
      H   23    0.24269      0.00000     0.75680    0.00051     0.75731
      H   24    0.23984      0.00000     0.75972    0.00044     0.76016
      H   25    0.21330      0.00000     0.78611    0.00059     0.78670
 =======================================================================
   * Total *    0.00000     39.98526    79.62515    0.38959   120.00000

 Normal termination of Gaussian 16 at Sun Aug 23 18:57:58 2020.
