 Gaussian 16, Revision A.03,

 ---------------------------------
 # opt=CalcAll B3LYP/6-31G* scf=qc
 ---------------------------------

 -------------------
 Title Card Required
 -------------------
 Symbolic Z-matrix:
 Charge =  0 Multiplicity = 1

 SCF Done:  E(RB3LYP) =  -814.810818052     a.u. after    7 cycles
 SCF Done:  E(RB3LYP) =  -814.832722736     a.u. after   15 cycles
 SCF Done:  E(RB3LYP) =  -814.882935554     a.u. after   14 cycles
 SCF Done:  E(RB3LYP) =  -814.898738951     a.u. after   13 cycles
 SCF Done:  E(RB3LYP) =  -814.904483408     a.u. after   15 cycles
 SCF Done:  E(RB3LYP) =  -814.907581744     a.u. after   15 cycles
 SCF Done:  E(RB3LYP) =  -814.909524679     a.u. after   11 cycles
 SCF Done:  E(RB3LYP) =  -814.909882050     a.u. after   11 cycles
 SCF Done:  E(RB3LYP) =  -814.909942398     a.u. after    9 cycles
 SCF Done:  E(RB3LYP) =  -814.909952450     a.u. after    6 cycles
 SCF Done:  E(RB3LYP) =  -814.909952905     a.u. after    2 cycles
 SCF Done:  E(RB3LYP) =  -814.909952957     a.u. after    2 cycles
 Optimization completed.
    -- Stationary point found.
 Normal termination of Gaussian 16 at Sun Aug 23 07:14:02 2020.

 ----------------------------------------------------------------------
 # freq B3LYP/6-31G* scf=qc volume NMR pop=NPA density=current Geom=All
 Check Guess=Read
 ----------------------------------------------------------------------

 Structure from the checkpoint file:  "phosphine_2_conf152.chk"
 -------------------
 Title Card Required
 -------------------
 Charge =  0 Multiplicity = 1

 SCF Done:  E(RB3LYP) =  -814.909952957     a.u. after    1 cycles

      1  C    Isotropic =   173.7386   Anisotropy =    24.1213

      2  C    Isotropic =   162.3170   Anisotropy =    22.9237

      3  C    Isotropic =   163.1813   Anisotropy =    23.3928

      4  C    Isotropic =   157.3191   Anisotropy =    23.4649

      5  H    Isotropic =    30.6973   Anisotropy =     6.0939

      6  H    Isotropic =    30.8282   Anisotropy =     6.8188

      7  P    Isotropic =   384.1758   Anisotropy =    27.4561

      8  C    Isotropic =   160.0360   Anisotropy =    15.0392

      9  H    Isotropic =    30.8872   Anisotropy =     6.9310

     10  H    Isotropic =    30.5608   Anisotropy =     4.0194

     11  C    Isotropic =   156.4236   Anisotropy =    22.4644

     12  C    Isotropic =   164.4643   Anisotropy =    15.6570

     13  C    Isotropic =   173.3148   Anisotropy =    25.6658

     14  C    Isotropic =   162.1699   Anisotropy =    33.5991

     15  H    Isotropic =    30.9285   Anisotropy =     8.5347

     16  H    Isotropic =    30.2614   Anisotropy =     4.3629

     17  C    Isotropic =   156.8748   Anisotropy =    23.1686

     18  C    Isotropic =   164.2533   Anisotropy =    17.9881

     19  C    Isotropic =   173.3055   Anisotropy =    25.7428

     20  H    Isotropic =    31.0343   Anisotropy =    10.5136

     21  H    Isotropic =    31.2408   Anisotropy =     7.7641

     22  H    Isotropic =    31.2258   Anisotropy =     7.5064

     23  H    Isotropic =    30.8041   Anisotropy =     6.4698

     24  H    Isotropic =    30.8000   Anisotropy =     6.0367

     25  H    Isotropic =    30.6118   Anisotropy =     5.7250

     26  H    Isotropic =    30.8624   Anisotropy =     5.8098

     27  H    Isotropic =    30.4923   Anisotropy =     7.8615

     28  H    Isotropic =    30.4811   Anisotropy =     5.6977

     29  H    Isotropic =    30.5350   Anisotropy =     7.5162

     30  H    Isotropic =    31.0080   Anisotropy =     4.9644

     31  H    Isotropic =    31.2794   Anisotropy =     8.1461

     32  H    Isotropic =    31.0741   Anisotropy =     9.8940

     33  H    Isotropic =    31.3378   Anisotropy =     8.6712

     34  H    Isotropic =    30.5509   Anisotropy =     7.7014

     35  H    Isotropic =    30.4229   Anisotropy =     5.3783

     36  H    Isotropic =    30.5258   Anisotropy =     6.4349

     37  H    Isotropic =    30.9554   Anisotropy =     5.4278

     38  H    Isotropic =    31.2649   Anisotropy =     8.2514

     39  H    Isotropic =    31.0764   Anisotropy =    10.0143

     40  H    Isotropic =    31.3257   Anisotropy =     8.5693

  Exact polarizability: 176.095   1.222 159.222  -2.165   3.260 127.164
 Approx polarizability: 213.231   2.105 210.971  -3.604   5.950 200.027

                      1                      2                      3
                      A                      A                      A
 Frequencies --     19.2713                37.5315                48.0717
 Red. masses --      3.0809                 3.1047                 3.3715
 Frc consts  --      0.0007                 0.0026                 0.0046
 IR Inten    --      0.0278                 0.0646                 0.0395

                      4                      5                      6
                      A                      A                      A
 Frequencies --     57.0974                70.3515                88.1217
 Red. masses --      1.6423                 2.2153                 1.6878
 Frc consts  --      0.0032                 0.0065                 0.0077
 IR Inten    --      0.0260                 0.0899                 0.0431

                      7                      8                      9
                      A                      A                      A
 Frequencies --    101.3914               104.5183               111.9132
 Red. masses --      2.0849                 2.5181                 3.0394
 Frc consts  --      0.0126                 0.0162                 0.0224
 IR Inten    --      0.0575                 0.0258                 0.0949

                     10                     11                     12
                      A                      A                      A
 Frequencies --    139.6233               178.7411               199.1073
 Red. masses --      2.4458                 3.5614                 2.7360
 Frc consts  --      0.0281                 0.0670                 0.0639
 IR Inten    --      0.0180                 0.0718                 0.0926

                     13                     14                     15
                      A                      A                      A
 Frequencies --    218.1787               240.0600               243.5461
 Red. masses --      1.8971                 1.3884                 1.4563
 Frc consts  --      0.0532                 0.0471                 0.0509
 IR Inten    --      0.0331                 0.0808                 0.0999

                     16                     17                     18
                      A                      A                      A
 Frequencies --    251.8441               253.4836               265.1673
 Red. masses --      1.3198                 1.5706                 1.5456
 Frc consts  --      0.0493                 0.0595                 0.0640
 IR Inten    --      0.0247                 0.0787                 0.2368

                     19                     20                     21
                      A                      A                      A
 Frequencies --    290.4487               300.1497               359.4697
 Red. masses --      2.0716                 2.9581                 4.1395
 Frc consts  --      0.1030                 0.1570                 0.3152
 IR Inten    --      0.4734                 0.0328                 0.6131

                     22                     23                     24
                      A                      A                      A
 Frequencies --    405.4581               477.6985               486.1297
 Red. masses --      2.7832                 2.5800                 2.8457
 Frc consts  --      0.2696                 0.3469                 0.3962
 IR Inten    --      0.1386                 0.2822                 0.8003

                     25                     26                     27
                      A                      A                      A
 Frequencies --    626.7500               645.0950               707.9027
 Red. masses --      3.5410                 3.1358                 4.0027
 Frc consts  --      0.8195                 0.7689                 1.1818
 IR Inten    --      2.6933                 5.3966                 2.9400

                     28                     29                     30
                      A                      A                      A
 Frequencies --    714.7121               743.7121               757.5996
 Red. masses --      1.2102                 1.1894                 1.2095
 Frc consts  --      0.3642                 0.3876                 0.4090
 IR Inten    --      7.8505                 8.1675                 4.1389

                     31                     32                     33
                      A                      A                      A
 Frequencies --    771.0101               797.8055               801.2784
 Red. masses --      1.1942                 1.4400                 1.6873
 Frc consts  --      0.4183                 0.5400                 0.6383
 IR Inten    --      0.6603                 3.0699                 7.8034

                     34                     35                     36
                      A                      A                      A
 Frequencies --    888.3291               890.2604               899.7262
 Red. masses --      1.5491                 1.4048                 1.4673
 Frc consts  --      0.7202                 0.6560                 0.6998
 IR Inten    --      0.8274                 2.6453                 4.0127

                     37                     38                     39
                      A                      A                      A
 Frequencies --    908.9129               915.4859               928.3650
 Red. masses --      1.6649                 1.4000                 1.3671
 Frc consts  --      0.8104                 0.6913                 0.6942
 IR Inten    --      1.2430                 6.3352                11.8249

                     40                     41                     42
                      A                      A                      A
 Frequencies --   1011.1241              1011.8869              1021.5373
 Red. masses --      2.8034                 2.7179                 3.6644
 Frc consts  --      1.6887                 1.6397                 2.2530
 IR Inten    --      1.5160                 1.1486                 3.5551

                     43                     44                     45
                      A                      A                      A
 Frequencies --   1062.1525              1064.8257              1067.1888
 Red. masses --      2.3756                 1.2964                 1.5532
 Frc consts  --      1.5790                 0.8661                 1.0423
 IR Inten    --      0.9198                 0.1015                 0.9941

                     46                     47                     48
                      A                      A                      A
 Frequencies --   1072.4947              1076.2178              1089.7295
 Red. masses --      1.8116                 1.5906                 1.3014
 Frc consts  --      1.2277                 1.0854                 0.9105
 IR Inten    --      0.6865                 1.0092                 4.9389

                     49                     50                     51
                      A                      A                      A
 Frequencies --   1113.0877              1117.6420              1124.2493
 Red. masses --      1.7626                 1.8168                 1.9384
 Frc consts  --      1.2866                 1.3371                 1.4435
 IR Inten    --      2.8006                 2.0581                 9.1847

                     52                     53                     54
                      A                      A                      A
 Frequencies --   1229.5386              1232.7129              1250.0450
 Red. masses --      1.4518                 1.4576                 1.4708
 Frc consts  --      1.2931                 1.3050                 1.3541
 IR Inten    --      0.8998                 8.6083                 1.2726

                     55                     56                     57
                      A                      A                      A
 Frequencies --   1258.5173              1264.2011              1267.7317
 Red. masses --      1.3578                 1.4298                 1.3762
 Frc consts  --      1.2671                 1.3464                 1.3032
 IR Inten    --      0.7448                 0.8232                 0.2689

                     58                     59                     60
                      A                      A                      A
 Frequencies --   1316.2653              1323.5533              1326.1398
 Red. masses --      1.2600                 1.2535                 1.1886
 Frc consts  --      1.2862                 1.2938                 1.2316
 IR Inten    --      4.9811                 1.9793                 2.8601

                     61                     62                     63
                      A                      A                      A
 Frequencies --   1343.5584              1345.3333              1349.9941
 Red. masses --      1.2611                 1.2753                 1.0857
 Frc consts  --      1.3412                 1.3599                 1.1658
 IR Inten    --      8.2673                 2.0910                 0.8330

                     64                     65                     66
                      A                      A                      A
 Frequencies --   1353.0208              1355.2217              1357.9443
 Red. masses --      1.2745                 1.1236                 1.1583
 Frc consts  --      1.3746                 1.2159                 1.2585
 IR Inten    --      4.2006                 1.0586                 0.6157

                     67                     68                     69
                      A                      A                      A
 Frequencies --   1408.2415              1419.8014              1421.2643
 Red. masses --      1.4939                 1.5349                 1.5337
 Frc consts  --      1.7455                 1.8230                 1.8253
 IR Inten    --      3.4987                 2.5612                 1.2130

                     70                     71                     72
                      A                      A                      A
 Frequencies --   1440.2982              1440.4673              1440.5555
 Red. masses --      1.2380                 1.2416                 1.2377
 Frc consts  --      1.5131                 1.5179                 1.5134
 IR Inten    --      0.7624                 1.3229                 0.7607

                     73                     74                     75
                      A                      A                      A
 Frequencies --   1484.1745              1491.0319              1491.8379
 Red. masses --      1.0850                 1.0863                 1.0827
 Frc consts  --      1.4082                 1.4229                 1.4197
 IR Inten    --      3.7916                 0.6178                 8.3105

                     76                     77                     78
                      A                      A                      A
 Frequencies --   1513.9243              1514.1319              1515.4205
 Red. masses --      1.0748                 1.0756                 1.0712
 Frc consts  --      1.4514                 1.4529                 1.4494
 IR Inten    --      1.0630                 1.3523                 0.5473

                     79                     80                     81
                      A                      A                      A
 Frequencies --   1523.4704              1523.5536              1525.6219
 Red. masses --      1.0656                 1.0669                 1.0683
 Frc consts  --      1.4572                 1.4592                 1.4650
 IR Inten    --      0.6790                 1.6360                 0.3702

                     82                     83                     84
                      A                      A                      A
 Frequencies --   1529.7180              1529.7899              1529.8091
 Red. masses --      1.0411                 1.0411                 1.0411
 Frc consts  --      1.4354                 1.4354                 1.4355
 IR Inten    --      6.3822                 4.0116                 7.6181

                     85                     86                     87
                      A                      A                      A
 Frequencies --   1538.9073              1538.9850              1540.1759
 Red. masses --      1.0784                 1.0789                 1.0825
 Frc consts  --      1.5047                 1.5056                 1.5129
 IR Inten    --      2.3655                 5.0387                 2.2108

                     88                     89                     90
                      A                      A                      A
 Frequencies --   3014.2148              3015.3186              3022.4738
 Red. masses --      1.0612                 1.0614                 1.0655
 Frc consts  --      5.6806                 5.6857                 5.7351
 IR Inten    --     13.1203                21.7420                50.4619

                     91                     92                     93
                      A                      A                      A
 Frequencies --   3023.8789              3024.7638              3027.1705
 Red. masses --      1.0592                 1.0651                 1.0609
 Frc consts  --      5.7064                 5.7417                 5.7280
 IR Inten    --     11.7240                49.1269                 7.5491

                     94                     95                     96
                      A                      A                      A
 Frequencies --   3029.6900              3036.5881              3040.1393
 Red. masses --      1.0618                 1.0599                 1.0495
 Frc consts  --      5.7422                 5.7583                 5.7151
 IR Inten    --     17.1058                18.7882                12.7360

                     97                     98                     99
                      A                      A                      A
 Frequencies --   3041.2772              3041.4034              3043.1772
 Red. masses --      1.0374                 1.0378                 1.0568
 Frc consts  --      5.6534                 5.6561                 5.7662
 IR Inten    --     46.2877                50.4346                41.9508

                    100                    101                    102
                      A                      A                      A
 Frequencies --   3048.4378              3049.1828              3051.3243
 Red. masses --      1.0932                 1.1002                 1.0845
 Frc consts  --      5.9854                 6.0267                 5.9494
 IR Inten    --     10.9505                 4.0693                25.4971

                    103                    104                    105
                      A                      A                      A
 Frequencies --   3065.6928              3066.3374              3070.5344
 Red. masses --      1.1014                 1.1026                 1.1000
 Frc consts  --      6.0987                 6.1081                 6.1107
 IR Inten    --     11.8236                16.9814                37.9961

                    106                    107                    108
                      A                      A                      A
 Frequencies --   3077.4178              3085.7940              3092.6245
 Red. masses --      1.1032                 1.1025                 1.1013
 Frc consts  --      6.1558                 6.1851                 6.2060
 IR Inten    --     33.5106                32.5333                23.7873

                    109                    110                    111
                      A                      A                      A
 Frequencies --   3106.0960              3106.6265              3106.8759
 Red. masses --      1.1029                 1.1028                 1.1028
 Frc consts  --      6.2694                 6.2709                 6.2721
 IR Inten    --     59.1547                41.4406                86.5076

                    112                    113                    114
                      A                      A                      A
 Frequencies --   3110.5224              3110.9810              3111.2024
 Red. masses --      1.1018                 1.1019                 1.1020
 Frc consts  --      6.2811                 6.2834                 6.2845
 IR Inten    --     39.1360                39.9947                45.3682

 - Thermochemistry -
 -------------------
 Temperature   298.150 Kelvin.  Pressure   1.00000 Atm.
 Atom     1 has atomic number  6 and mass  12.00000

 Molecular mass:   202.18504 amu.
 Principal axes and moments of inertia in atomic units:
                           1         2         3
     Eigenvalues --  3200.387204971.501117553.96892
           X            1.00000  -0.00171  -0.00084
           Y            0.00171   1.00000  -0.00260
           Z            0.00085   0.00260   1.00000
 This molecule is an asymmetric top.
 Rotational symmetry number  1.
 Warning -- assumption of classical behavior for rotation
           may cause significant error
 Rotational temperatures (Kelvin)      0.02706     0.01742     0.01147
 Rotational constants (GHZ):           0.56391     0.36302     0.23891
 Zero-point vibrational energy     976937.3 (Joules/Mol)
                                  233.49361 (Kcal/Mol)
 Warning -- explicit consideration of  24 degrees of freedom as
           vibrations may cause significant error
 Vibrational temperatures:     27.73    54.00    69.16    82.15   101.22
          (Kelvin)            126.79   145.88   150.38   161.02   200.89
                              257.17   286.47   313.91   345.39   350.41
                              362.35   364.71   381.52   417.89   431.85
                              517.20   583.36   687.30   699.43   901.75
                              928.15  1018.51  1028.31  1070.04  1090.02
                             1109.31  1147.86  1152.86  1278.11  1280.89
                             1294.51  1307.72  1317.18  1335.71  1454.78
                             1455.88  1469.76  1528.20  1532.05  1535.45
                             1543.08  1548.44  1567.88  1601.48  1608.04
                             1617.54  1769.03  1773.60  1798.54  1810.73
                             1818.90  1823.98  1893.81  1904.30  1908.02
                             1933.08  1935.63  1942.34  1946.70  1949.86
                             1953.78  2026.15  2042.78  2044.88  2072.27
                             2072.51  2072.64  2135.40  2145.26  2146.42
                             2178.20  2178.50  2180.35  2191.93  2192.05
                             2195.03  2200.92  2201.03  2201.05  2214.14
                             2214.26  2215.97  4336.78  4338.37  4348.67
                             4350.69  4351.96  4355.42  4359.05  4368.97
                             4374.08  4375.72  4375.90  4378.45  4386.02
                             4387.09  4390.18  4410.85  4411.78  4417.81
                             4427.72  4439.77  4449.60  4468.98  4469.74
                             4470.10  4475.35  4476.01  4476.33

 Zero-point correction=                           0.372096 (Hartree/Particle)
 Thermal correction to Energy=                    0.390697
 Thermal correction to Enthalpy=                  0.391641
 Thermal correction to Gibbs Free Energy=         0.323452
 Sum of electronic and zero-point Energies=           -814.537857
 Sum of electronic and thermal Energies=              -814.519256
 Sum of electronic and thermal Enthalpies=            -814.518311
 Sum of electronic and thermal Free Energies=         -814.586501

                     E (Thermal)             CV                S
                      KCal/Mol        Cal/Mol-Kelvin    Cal/Mol-Kelvin
 Total                  245.166             66.354            143.517
 Electronic               0.000              0.000              0.000
 Translational            0.889              2.981             41.817
 Rotational               0.889              2.981             33.152
 Vibrational            243.389             60.392             68.549
 Vibration     1          0.593              1.986              6.708
 Vibration     2          0.594              1.982              5.385
 Vibration     3          0.595              1.978              4.895
 Vibration     4          0.596              1.975              4.555
 Vibration     5          0.598              1.968              4.143
 Vibration     6          0.601              1.958              3.701
 Vibration     7          0.604              1.948              3.427
 Vibration     8          0.605              1.946              3.368
 Vibration     9          0.607              1.940              3.235
 Vibration    10          0.615              1.914              2.809
 Vibration    11          0.629              1.868              2.342
 Vibration    12          0.637              1.841              2.141
 Vibration    13          0.646              1.813              1.974
 Vibration    14          0.657              1.779              1.802
 Vibration    15          0.659              1.773              1.777
 Vibration    16          0.664              1.760              1.718
 Vibration    17          0.665              1.757              1.706
 Vibration    18          0.671              1.737              1.628
 Vibration    19          0.686              1.692              1.471
 Vibration    20          0.693              1.673              1.416
 Vibration    21          0.734              1.556              1.124
 Vibration    22          0.770              1.458              0.943
 Vibration    23          0.834              1.300              0.716
 Vibration    24          0.842              1.281              0.694

 Optimization completed.
    -- Stationary point found.
 Normal termination of Gaussian 16 at Sun Aug 23 07:21:10 2020.
 Gaussian 16:  ES64L-G16RevA.03 25-Dec-2016

 ----------------------------------------------------------------------
 # TD(NStates=10, Root=1) B3LYP/6-31G* scf=qc volume pop=NPA density=cu
 rrent Geom=AllCheck Guess=Read
 ----------------------------------------------------------------------

 Structure from the checkpoint file:  "phosphine_2_conf153.chk"
 -------------------
 Title Card Required
 -------------------
 Charge =  0 Multiplicity = 1

                         Standard orientation:
 ---------------------------------------------------------------------
 Center     Atomic      Atomic             Coordinates (Angstroms)
 Number     Number       Type             X           Y           Z
 ---------------------------------------------------------------------
      1          6           0        4.101206   -2.703357    0.871353
      2          6           0        3.384006   -1.974252   -0.269634
      3          6           0        2.008399   -1.422562    0.136717
      4          6           0        1.300778   -0.688437   -1.011651
      5          1           0        1.927614    0.142445   -1.360640
      6          1           0        1.204306   -1.364096   -1.873739
      7         15           0       -0.428968    0.013197   -0.752266
      8          6           0       -1.298296   -1.519264   -0.076115
      9          1           0       -0.853473   -2.378290   -0.595278
     10          1           0       -1.077876   -1.653818    0.991849
     11          6           0       -2.819444   -1.541116   -0.312606
     12          6           0       -3.612644   -0.461422    0.434770
     13          6           0       -5.125274   -0.581969    0.221820
     14          6           0       -0.254128    1.041635    0.819896
     15          1           0       -1.208360    0.933274    1.349078
     16          1           0        0.512644    0.620632    1.483552
     17          6           0        0.007938    2.539320    0.583418
     18          6           0        1.360890    2.871734   -0.059255
     19          6           0        1.609227    4.379233   -0.175629
     20          1           0        5.077166   -3.085699    0.551031
     21          1           0        3.511246   -3.555791    1.230298
     22          1           0        4.269378   -2.035495    1.725299
     23          1           0        3.262272   -2.657149   -1.122411
     24          1           0        4.012949   -1.147885   -0.630073
     25          1           0        2.138755   -0.746403    0.992313
     26          1           0        1.383212   -2.251752    0.494670
     27          1           0       -3.203241   -2.528447   -0.015058
     28          1           0       -3.016623   -1.447301   -1.389535
     29          1           0       -3.280464    0.532416    0.105203
     30          1           0       -3.388295   -0.522860    1.509891
     31          1           0       -5.382659   -0.492952   -0.840713
     32          1           0       -5.669884    0.200258    0.762826
     33          1           0       -5.498909   -1.552124    0.572313
     34          1           0       -0.058721    3.059606    1.550645
     35          1           0       -0.795876    2.952138   -0.042037
     36          1           0        1.412496    2.420377   -1.059131
     37          1           0        2.167285    2.411496    0.530266
     38          1           0        0.834172    4.861394   -0.783938
     39          1           0        2.578112    4.591378   -0.641969
     40          1           0        1.601358    4.859439    0.810767
 ---------------------------------------------------------------------

 SCF Done:  E(RB3LYP) =  -814.909952957     a.u. after    1 cycles

 Excitation energies and oscillator strengths:

 Excited State   1:      Singlet-A      6.5179 eV  190.22 nm  f=0.1184  <S**2>=0.000
      57 -> 58         0.60036
      57 -> 59         0.35270
 This state for optimization and/or second-order correction.
 Total Energy, E(TD-HF/TD-DFT) =  -814.670423904
 Copying the excited state density for this state as the 1-particle RhoCI density.

 Excited State   2:      Singlet-A      6.5727 eV  188.64 nm  f=0.1316  <S**2>=0.000
      57 -> 58        -0.35424
      57 -> 59         0.59796

 Excited State   3:      Singlet-A      7.0471 eV  175.94 nm  f=0.0077  <S**2>=0.000
      57 -> 60         0.69749

 Excited State   4:      Singlet-A      7.5274 eV  164.71 nm  f=0.0096  <S**2>=0.000
      57 -> 61         0.66711
      57 -> 62        -0.18052

 Excited State   5:      Singlet-A      7.7294 eV  160.41 nm  f=0.0070  <S**2>=0.000
      57 -> 61         0.18524
      57 -> 62         0.65295
      57 -> 64         0.10528

 Excited State   6:      Singlet-A      7.8736 eV  157.47 nm  f=0.0386  <S**2>=0.000
      57 -> 63         0.59234
      57 -> 64         0.35589

 Excited State   7:      Singlet-A      8.0876 eV  153.30 nm  f=0.0066  <S**2>=0.000
      57 -> 63        -0.37127
      57 -> 64         0.57833

 Excited State   8:      Singlet-A      8.2393 eV  150.48 nm  f=0.0007  <S**2>=0.000
      57 -> 62         0.12726
      57 -> 65         0.67957

 Excited State   9:      Singlet-A      8.2852 eV  149.65 nm  f=0.0032  <S**2>=0.000
      55 -> 58         0.20945
      55 -> 59        -0.36954
      56 -> 58         0.50747
      56 -> 59         0.21665

 Excited State  10:      Singlet-A      8.3991 eV  147.62 nm  f=0.0062  <S**2>=0.000
      55 -> 58        -0.21873
      56 -> 59         0.15479
      57 -> 66         0.62490
      57 -> 68        -0.11630

 The electronic state is 1-A.
 Alpha  occ. eigenvalues --  -77.06352 -10.18046 -10.18025 -10.18020 -10.17990
 Alpha  occ. eigenvalues --  -10.17893 -10.17818 -10.17794 -10.17720 -10.17720
 Alpha  occ. eigenvalues --  -10.17319 -10.17062 -10.17057  -6.53103  -4.69359
 Alpha  occ. eigenvalues --   -4.69349  -4.68859  -0.79927  -0.78866  -0.78714
 Alpha  occ. eigenvalues --   -0.74117  -0.71689  -0.71571  -0.65214  -0.62649
 Alpha  occ. eigenvalues --   -0.62225  -0.58167  -0.57775  -0.56728  -0.51387
 Alpha  occ. eigenvalues --   -0.47014  -0.46270  -0.45701  -0.43362  -0.42856
 Alpha  occ. eigenvalues --   -0.42349  -0.41877  -0.41723  -0.40443  -0.40011
 Alpha  occ. eigenvalues --   -0.39736  -0.38144  -0.36452  -0.36179  -0.35476
 Alpha  occ. eigenvalues --   -0.34941  -0.34048  -0.33780  -0.33300  -0.32841
 Alpha  occ. eigenvalues --   -0.32545  -0.32295  -0.32001  -0.31687  -0.28911
 Alpha  occ. eigenvalues --   -0.28757  -0.21083
 Alpha virt. eigenvalues --    0.05808   0.05938   0.07964   0.09516   0.10332
 Alpha virt. eigenvalues --    0.10964   0.11264   0.11804   0.12813   0.13554
 Alpha virt. eigenvalues --    0.13862   0.14390   0.15366   0.15477   0.16655

 Mulliken charges:
               1
     1  C   -0.440750
     2  C   -0.246451
     3  C   -0.251000
     4  C   -0.431162
     5  H    0.149896
     6  H    0.147548
     7  P    0.321128
     8  C   -0.428113
     9  H    0.141640
    10  H    0.178382
    11  C   -0.239669
    12  C   -0.215624
    13  C   -0.444928
    14  C   -0.416283
    15  H    0.185624
    16  H    0.132322
    17  C   -0.252643
    18  C   -0.250102
    19  C   -0.441913
    20  H    0.142204
    21  H    0.141051
    22  H    0.141748
    23  H    0.132764
    24  H    0.134267
    25  H    0.131311
    26  H    0.133008
    27  H    0.119425
    28  H    0.140167
    29  H    0.106294
    30  H    0.110585
    31  H    0.137405
    32  H    0.138719
    33  H    0.135044
    34  H    0.132981
    35  H    0.132424
    36  H    0.136188
    37  H    0.129729
    38  H    0.144039
    39  H    0.141761
    40  H    0.140983
 Sum of Mulliken charges =  -0.00000

 Dipole moment (field-independent basis, Debye):
    X=              1.0589    Y=             -0.6790    Z=              0.7023  Tot=              1.4407
 Quadrupole moment (field-independent basis, Debye-Ang):
   XX=            -99.0220   YY=            -94.3253   ZZ=            -95.2303
   XY=              0.9440   XZ=             -0.6639   YZ=              0.5990

 Summary of Natural Population Analysis:

                                       Natural Population
                Natural  -----------------------------------------------
    Atom  No    Charge         Core      Valence    Rydberg      Total
 -----------------------------------------------------------------------
      C    1   -0.67379      1.99946     4.66683    0.00751     6.67379
      C    2   -0.45113      1.99935     4.44060    0.01118     6.45113
      C    3   -0.45088      1.99929     4.43954    0.01205     6.45088
      C    4   -0.87306      1.99933     4.84676    0.02697     6.87306
      H    5    0.24391      0.00000     0.75346    0.00263     0.75609
      H    6    0.24481      0.00000     0.75325    0.00194     0.75519
      P    7    0.99319      9.99772     3.89131    0.11778    14.00681
      C    8   -0.75660      1.99930     4.74053    0.01677     6.75660
      H    9    0.22640      0.00000     0.76484    0.00876     0.77360
      H   10    0.26003      0.00000     0.73751    0.00246     0.73997
      C   11   -0.45594      1.99932     4.44295    0.01367     6.45594
      C   12   -0.46229      1.99934     4.45149    0.01146     6.46229
      C   13   -0.67437      1.99946     4.66687    0.00804     6.67437
      C   14   -0.77715      1.99928     4.75909    0.01878     6.77715
      H   15    0.26725      0.00000     0.73147    0.00128     0.73275
      H   16    0.21791      0.00000     0.77012    0.01197     0.78209
      C   17   -0.46319      1.99932     4.44986    0.01400     6.46319
      C   18   -0.45534      1.99935     4.44544    0.01055     6.45534
      C   19   -0.67262      1.99947     4.66552    0.00763     6.67262
      H   20    0.23147      0.00000     0.76694    0.00159     0.76853
      H   21    0.22396      0.00000     0.77478    0.00126     0.77604
      H   22    0.22431      0.00000     0.77440    0.00129     0.77569
      H   23    0.22771      0.00000     0.77063    0.00166     0.77229
      H   24    0.22844      0.00000     0.76991    0.00165     0.77156
      H   25    0.22017      0.00000     0.77454    0.00529     0.77983
      H   26    0.22410      0.00000     0.77298    0.00293     0.77590
      H   27    0.22557      0.00000     0.76975    0.00469     0.77443
      H   28    0.23245      0.00000     0.76559    0.00196     0.76755
      H   29    0.20410      0.00000     0.77824    0.01765     0.79590
      H   30    0.21434      0.00000     0.78325    0.00241     0.78566
      H   31    0.22113      0.00000     0.77691    0.00196     0.77887
      H   32    0.22994      0.00000     0.76895    0.00110     0.77006
      H   33    0.22022      0.00000     0.77862    0.00116     0.77978
      H   34    0.23416      0.00000     0.76395    0.00188     0.76584
      H   35    0.22545      0.00000     0.76684    0.00771     0.77455
      H   36    0.21982      0.00000     0.77650    0.00368     0.78018
      H   37    0.22456      0.00000     0.77333    0.00211     0.77544
      H   38    0.22561      0.00000     0.77329    0.00110     0.77439
      H   39    0.23162      0.00000     0.76742    0.00096     0.76838
      H   40    0.22373      0.00000     0.77511    0.00116     0.77627
 =======================================================================
   * Total *   -0.00000     33.98998    79.63938    0.37064   114.00000

 Normal termination of Gaussian 16 at Sun Aug 23 07:29:58 2020.
