 Gaussian 16, Revision A.03,

 ---------------------------------
 # opt=CalcAll B3LYP/6-31G* scf=qc
 ---------------------------------

 -------------------
 Title Card Required
 -------------------
 Symbolic Z-matrix:
 Charge =  0 Multiplicity = 1

 SCF Done:  E(RB3LYP) =  -1333.98911939     a.u. after    7 cycles
 SCF Done:  E(RB3LYP) =  -1333.99781182     a.u. after   17 cycles
 SCF Done:  E(RB3LYP) =  -1333.99865596     a.u. after   17 cycles
 SCF Done:  E(RB3LYP) =  -1333.99783627     a.u. after   17 cycles
 SCF Done:  E(RB3LYP) =  -1333.99884112     a.u. after   11 cycles
 SCF Done:  E(RB3LYP) =  -1333.99897564     a.u. after   13 cycles
 SCF Done:  E(RB3LYP) =  -1333.99897485     a.u. after    7 cycles
 SCF Done:  E(RB3LYP) =  -1333.99897262     a.u. after    2 cycles
 SCF Done:  E(RB3LYP) =  -1333.99898024     a.u. after    5 cycles
 SCF Done:  E(RB3LYP) =  -1333.99897779     a.u. after    5 cycles
 SCF Done:  E(RB3LYP) =  -1333.99898225     a.u. after    2 cycles
 SCF Done:  E(RB3LYP) =  -1333.99897487     a.u. after    3 cycles
 SCF Done:  E(RB3LYP) =  -1333.99897535     a.u. after    3 cycles
 SCF Done:  E(RB3LYP) =  -1333.99897695     a.u. after    3 cycles
 SCF Done:  E(RB3LYP) =  -1333.99897785     a.u. after    2 cycles
 SCF Done:  E(RB3LYP) =  -1333.99897565     a.u. after    2 cycles
 Optimization completed.
    -- Stationary point found.
 Normal termination of Gaussian 16 at Sun Aug 23 15:57:06 2020.

 ----------------------------------------------------------------------
 # freq B3LYP/6-31G* scf=qc volume NMR pop=NPA density=current Geom=All
 Check Guess=Read
 ----------------------------------------------------------------------

 Structure from the checkpoint file:  "phosphine_5_conf292.chk"
 -------------------
 Title Card Required
 -------------------
 Charge =  0 Multiplicity = 1

 SCF Done:  E(RB3LYP) =  -1333.99897565     a.u. after    1 cycles

      1  C    Isotropic =    80.0640   Anisotropy =   136.7255

      2  C    Isotropic =    60.6940   Anisotropy =   171.9238

      3  C    Isotropic =    61.6429   Anisotropy =   173.4925

      4  C    Isotropic =    59.0143   Anisotropy =   162.7705

      5  C    Isotropic =    79.9294   Anisotropy =   137.4254

      6  C    Isotropic =    32.6656   Anisotropy =    98.8284

      7  F    Isotropic =   295.7917   Anisotropy =   113.0681

      8  P    Isotropic =   366.1599   Anisotropy =    39.7878

      9  C    Isotropic =    61.6057   Anisotropy =   173.5255

     10  C    Isotropic =    60.6921   Anisotropy =   171.8942

     11  C    Isotropic =    80.0715   Anisotropy =   136.7169

     12  C    Isotropic =    32.6551   Anisotropy =    98.8354

     13  C    Isotropic =    79.9190   Anisotropy =   137.4293

     14  C    Isotropic =    59.0156   Anisotropy =   162.7513

     15  F    Isotropic =   295.7811   Anisotropy =   113.0895

     16  C    Isotropic =    61.5987   Anisotropy =   173.5431

     17  C    Isotropic =    59.0714   Anisotropy =   162.7990

     18  C    Isotropic =    79.9455   Anisotropy =   137.4483

     19  C    Isotropic =    32.6766   Anisotropy =    98.7927

     20  C    Isotropic =    80.0819   Anisotropy =   136.7496

     21  C    Isotropic =    60.7551   Anisotropy =   171.8743

     22  F    Isotropic =   295.8052   Anisotropy =   112.9358

     23  H    Isotropic =    25.4636   Anisotropy =     5.7385

     24  H    Isotropic =    25.3588   Anisotropy =    12.0170

     25  H    Isotropic =    24.6179   Anisotropy =     8.9171

     26  H    Isotropic =    25.3587   Anisotropy =     4.2566

     27  H    Isotropic =    25.3613   Anisotropy =    12.0056

     28  H    Isotropic =    25.4675   Anisotropy =     5.7332

     29  H    Isotropic =    25.3568   Anisotropy =     4.2617

     30  H    Isotropic =    24.6170   Anisotropy =     8.9159

     31  H    Isotropic =    24.6221   Anisotropy =     8.9282

     32  H    Isotropic =    25.3616   Anisotropy =     4.2542

     33  H    Isotropic =    25.4661   Anisotropy =     5.7394

     34  H    Isotropic =    25.3653   Anisotropy =    12.0313

  Exact polarizability: 226.214  -0.093 226.012   0.045  -0.104 167.825
 Approx polarizability: 337.868  -0.207 337.488   0.097  -0.235 315.086

                      1                      2                      3
                      A                      A                      A
 Frequencies --     23.3302                24.3708                37.4429
 Red. masses --      4.0651                 4.0902                 8.9260
 Frc consts  --      0.0013                 0.0014                 0.0074
 IR Inten    --      0.2502                 0.2549                 0.1005

                      4                      5                      6
                      A                      A                      A
 Frequencies --     37.5375                40.3565                50.6473
 Red. masses --      9.0751                 3.7400                 9.9513
 Frc consts  --      0.0075                 0.0036                 0.0150
 IR Inten    --      0.0930                 0.0054                 0.1146

                      7                      8                      9
                      A                      A                      A
 Frequencies --    132.9740               145.4977               145.8108
 Red. masses --      8.0544                 8.3689                 8.3762
 Frc consts  --      0.0839                 0.1044                 0.1049
 IR Inten    --      0.0236                 0.5208                 0.5145

                     10                     11                     12
                      A                      A                      A
 Frequencies --    209.0346               218.9132               219.4653
 Red. masses --      8.0493                 6.9857                 6.9945
 Frc consts  --      0.2072                 0.1972                 0.1985
 IR Inten    --      0.2898                 0.5271                 0.5294

                     13                     14                     15
                      A                      A                      A
 Frequencies --    307.9604               336.0207               336.0828
 Red. masses --      8.4296                 8.3169                 8.3064
 Frc consts  --      0.4710                 0.5533                 0.5528
 IR Inten    --      1.0306                 0.0451                 0.0439

                     16                     17                     18
                      A                      A                      A
 Frequencies --    397.1409               404.1276               404.1748
 Red. masses --      7.7427                 8.0279                 8.0185
 Frc consts  --      0.7195                 0.7725                 0.7718
 IR Inten    --      0.3040                10.1295                10.0990

                     19                     20                     21
                      A                      A                      A
 Frequencies --    420.6646               420.7476               424.7501
 Red. masses --      3.2835                 3.2782                 3.1354
 Frc consts  --      0.3423                 0.3419                 0.3333
 IR Inten    --      1.1589                 1.0823                 0.0234

                     22                     23                     24
                      A                      A                      A
 Frequencies --    435.0129               435.2075               463.6145
 Red. masses --      6.1430                 6.1515                 6.6463
 Frc consts  --      0.6849                 0.6865                 0.8417
 IR Inten    --     18.9230                19.0387                 7.4058

                     25                     26                     27
                      A                      A                      A
 Frequencies --    533.0275               533.1428               535.5433
 Red. masses --      2.8108                 2.8120                 2.9073
 Frc consts  --      0.4705                 0.4709                 0.4913
 IR Inten    --     21.9300                21.8509                13.4615

                     28                     29                     30
                      A                      A                      A
 Frequencies --    608.0779               630.0070               630.0443
 Red. masses --      7.9092                 7.8313                 7.8282
 Frc consts  --      1.7231                 1.8314                 1.8309
 IR Inten    --      0.0095                 0.0366                 0.0388

                     31                     32                     33
                      A                      A                      A
 Frequencies --    648.2482               648.3916               648.4435
 Red. masses --      7.2770                 7.3794                 7.3806
 Frc consts  --      1.8017                 1.8279                 1.8285
 IR Inten    --      0.0047                 0.1284                 0.1301

                     34                     35                     36
                      A                      A                      A
 Frequencies --    715.1376               715.6569               715.7046
 Red. masses --      4.8098                 4.8255                 4.8295
 Frc consts  --      1.4493                 1.4561                 1.4575
 IR Inten    --      1.0628                 3.9392                 3.9607

                     37                     38                     39
                      A                      A                      A
 Frequencies --    835.7492               835.8271               836.8529
 Red. masses --      1.2635                 1.2619                 1.3269
 Frc consts  --      0.5200                 0.5194                 0.5475
 IR Inten    --      0.5341                 0.4798                11.3158

                     40                     41                     42
                      A                      A                      A
 Frequencies --    839.5374               839.5681               839.8178
 Red. masses --      3.2674                 3.2738                 4.0365
 Frc consts  --      1.3569                 1.3596                 1.6774
 IR Inten    --     62.2176                61.5577                18.0849

                     43                     44                     45
                      A                      A                      A
 Frequencies --    843.6727               843.7810               844.1050
 Red. masses --      2.0001                 1.9751                 1.6717
 Frc consts  --      0.8388                 0.8285                 0.7018
 IR Inten    --     10.0468                10.2198                12.1414

                     46                     47                     48
                      A                      A                      A
 Frequencies --    958.6701               958.7430               959.8764
 Red. masses --      1.2561                 1.2560                 1.2588
 Frc consts  --      0.6801                 0.6802                 0.6833
 IR Inten    --      0.1686                 0.1654                 0.3316

                     49                     50                     51
                      A                      A                      A
 Frequencies --    969.9401               969.9884               973.5143
 Red. masses --      1.3354                 1.3352                 1.3193
 Frc consts  --      0.7402                 0.7402                 0.7367
 IR Inten    --      0.0361                 0.0330                 0.3111

                     52                     53                     54
                      A                      A                      A
 Frequencies --   1034.7140              1034.8046              1035.1822
 Red. masses --      3.0266                 3.0321                 3.0243
 Frc consts  --      1.9092                 1.9130                 1.9095
 IR Inten    --      7.9555                 7.8809                 0.1459

                     55                     56                     57
                      A                      A                      A
 Frequencies --   1102.9055              1103.1360              1108.8150
 Red. masses --      3.6677                 3.6664                 3.5538
 Frc consts  --      2.6286                 2.6287                 2.5743
 IR Inten    --     19.3123                19.1718                 1.8926

                     58                     59                     60
                      A                      A                      A
 Frequencies --   1127.5312              1127.7358              1127.9438
 Red. masses --      1.3304                 1.3304                 1.3291
 Frc consts  --      0.9966                 0.9969                 0.9963
 IR Inten    --      1.0103                 1.4731                 6.5632

                     61                     62                     63
                      A                      A                      A
 Frequencies --   1195.2210              1195.6079              1199.4998
 Red. masses --      1.1836                 1.1855                 1.1804
 Frc consts  --      0.9962                 0.9984                 1.0007
 IR Inten    --     60.6296                61.1474                 2.6232

                     64                     65                     66
                      A                      A                      A
 Frequencies --   1285.3217              1285.4644              1286.2115
 Red. masses --      3.7552                 3.7426                 3.7829
 Frc consts  --      3.6551                 3.6437                 3.6873
 IR Inten    --    167.3834               166.2700                38.7764

                     67                     68                     69
                      A                      A                      A
 Frequencies --   1324.1545              1327.2921              1327.7297
 Red. masses --      2.7430                 2.2240                 2.3242
 Frc consts  --      2.8337                 2.3085                 2.4140
 IR Inten    --      8.8137                 3.8907                 3.8849

                     70                     71                     72
                      A                      A                      A
 Frequencies --   1336.7046              1336.8792              1337.1540
 Red. masses --      2.3267                 2.2278                 1.9374
 Frc consts  --      2.4494                 2.3459                 2.0410
 IR Inten    --      0.3503                 0.3560                 0.8838

                     73                     74                     75
                      A                      A                      A
 Frequencies --   1437.9227              1438.0687              1438.2422
 Red. masses --      2.9860                 2.9927                 2.9877
 Frc consts  --      3.6375                 3.6465                 3.6413
 IR Inten    --      6.7824                 2.7180                 2.6265

                     76                     77                     78
                      A                      A                      A
 Frequencies --   1545.5496              1545.7175              1546.5158
 Red. masses --      2.4083                 2.4050                 2.4444
 Frc consts  --      3.3894                 3.3855                 3.4445
 IR Inten    --    116.2998               116.4637                24.3933

                     79                     80                     81
                      A                      A                      A
 Frequencies --   1633.9245              1633.9758              1633.9867
 Red. masses --      6.9692                 6.9618                 6.9568
 Frc consts  --     10.9621                10.9512                10.9435
 IR Inten    --      9.3473                11.8794                13.5325

                     82                     83                     84
                      A                      A                      A
 Frequencies --   1653.5089              1653.5582              1654.3819
 Red. masses --      5.8089                 5.8063                 5.8791
 Frc consts  --      9.3575                 9.3538                 9.4805
 IR Inten    --     82.8479                82.6412                22.5957

                     85                     86                     87
                      A                      A                      A
 Frequencies --   3188.7994              3188.8600              3188.9253
 Red. masses --      1.0892                 1.0892                 1.0892
 Frc consts  --      6.5256                 6.5256                 6.5258
 IR Inten    --      6.1458                 3.8912                 3.3498

                     88                     89                     90
                      A                      A                      A
 Frequencies --   3205.8587              3205.9073              3206.5364
 Red. masses --      1.0878                 1.0878                 1.0879
 Frc consts  --      6.5869                 6.5870                 6.5901
 IR Inten    --      2.0296                 2.0377                 0.3537

                     91                     92                     93
                      A                      A                      A
 Frequencies --   3221.8863              3221.9688              3222.1678
 Red. masses --      1.0942                 1.0942                 1.0940
 Frc consts  --      6.6922                 6.6923                 6.6923
 IR Inten    --      3.3385                 3.1159                11.5188

                     94                     95                     96
                      A                      A                      A
 Frequencies --   3222.5919              3222.6643              3222.8770
 Red. masses --      1.0937                 1.0936                 1.0939
 Frc consts  --      6.6920                 6.6919                 6.6946
 IR Inten    --     12.2318                12.2582                 0.3271

 - Thermochemistry -
 -------------------
 Temperature   298.150 Kelvin.  Pressure   1.00000 Atm.
 Atom     1 has atomic number  6 and mass  12.00000

 Molecular mass:   316.06287 amu.
 Principal axes and moments of inertia in atomic units:
                           1         2         3
     Eigenvalues --  8315.804958321.48262**********
           X            0.99953  -0.03063   0.00002
           Y            0.03063   0.99953  -0.00003
           Z           -0.00001   0.00003   1.00000
 This molecule is an asymmetric top.
 Rotational symmetry number  1.
 Warning -- assumption of classical behavior for rotation
           may cause significant error
 Rotational temperatures (Kelvin)      0.01042     0.01041     0.00597
 Rotational constants (GHZ):           0.21703     0.21688     0.12431
 Zero-point vibrational energy     655292.5 (Joules/Mol)
                                  156.61868 (Kcal/Mol)
 Warning -- explicit consideration of  28 degrees of freedom as
           vibrations may cause significant error
 Vibrational temperatures:     33.57    35.06    53.87    54.01    58.06
          (Kelvin)             72.87   191.32   209.34   209.79   300.75
                              314.97   315.76   443.09   483.46   483.55
                              571.40   581.45   581.52   605.24   605.36
                              611.12   625.89   626.17   667.04   766.91
                              767.07   770.53   874.89   906.44   906.49
                              932.68   932.89   932.97  1028.92  1029.67
                             1029.74  1202.46  1202.57  1204.04  1207.91
                             1207.95  1208.31  1213.86  1214.01  1214.48
                             1379.31  1379.42  1381.05  1395.53  1395.60
                             1400.67  1488.72  1488.85  1489.40  1586.84
                             1587.17  1595.34  1622.27  1622.56  1622.86
                             1719.66  1720.21  1725.81  1849.29  1849.50
                             1850.57  1905.16  1909.68  1910.31  1923.22
                             1923.47  1923.87  2068.85  2069.06  2069.31
                             2223.70  2223.94  2225.09  2350.85  2350.93
                             2350.94  2379.03  2379.10  2380.29  4587.97
                             4588.06  4588.15  4612.52  4612.59  4613.49
                             4635.58  4635.69  4635.98  4636.59  4636.70
                             4637.00

 Zero-point correction=                           0.249588 (Hartree/Particle)
 Thermal correction to Energy=                    0.268018
 Thermal correction to Enthalpy=                  0.268962
 Thermal correction to Gibbs Free Energy=         0.199502
 Sum of electronic and zero-point Energies=          -1333.749388
 Sum of electronic and thermal Energies=             -1333.730957
 Sum of electronic and thermal Enthalpies=           -1333.730013
 Sum of electronic and thermal Free Energies=        -1333.799474

                     E (Thermal)             CV                S
                      KCal/Mol        Cal/Mol-Kelvin    Cal/Mol-Kelvin
 Total                  168.184             71.394            146.193
 Electronic               0.000              0.000              0.000
 Translational            0.889              2.981             43.148
 Rotational               0.889              2.981             35.262
 Vibrational            166.407             65.432             67.783
 Vibration     1          0.593              1.985              6.328
 Vibration     2          0.593              1.985              6.242
 Vibration     3          0.594              1.982              5.390
 Vibration     4          0.594              1.982              5.385
 Vibration     5          0.594              1.981              5.242
 Vibration     6          0.595              1.977              4.792
 Vibration     7          0.613              1.920              2.903
 Vibration     8          0.617              1.908              2.730
 Vibration     9          0.617              1.907              2.726
 Vibration    10          0.642              1.827              2.052
 Vibration    11          0.647              1.812              1.968
 Vibration    12          0.647              1.811              1.963
 Vibration    13          0.698              1.659              1.373
 Vibration    14          0.717              1.604              1.231
 Vibration    15          0.717              1.603              1.231
 Vibration    16          0.764              1.476              0.973
 Vibration    17          0.769              1.461              0.948
 Vibration    18          0.769              1.461              0.947
 Vibration    19          0.783              1.425              0.890
 Vibration    20          0.783              1.425              0.889
 Vibration    21          0.787              1.416              0.876
 Vibration    22          0.796              1.394              0.842
 Vibration    23          0.796              1.393              0.842
 Vibration    24          0.821              1.331              0.756
 Vibration    25          0.888              1.177              0.580
 Vibration    26          0.888              1.177              0.580
 Vibration    27          0.891              1.171              0.575
 Vibration    28          0.967              1.015              0.436

                           ! Non-Optimized Parameters !
 Normal termination of Gaussian 16 at Sun Aug 23 16:10:58 2020.
 Gaussian 16:  ES64L-G16RevA.03 25-Dec-2016

 ----------------------------------------------------------------------
 # TD(NStates=10, Root=1) B3LYP/6-31G* scf=qc volume pop=NPA density=cu
 rrent Geom=AllCheck Guess=Read
 ----------------------------------------------------------------------

 Structure from the checkpoint file:  "phosphine_5_conf293.chk"
 -------------------
 Title Card Required
 -------------------
 Charge =  0 Multiplicity = 1

                         Standard orientation:
 ---------------------------------------------------------------------
 Center     Atomic      Atomic             Coordinates (Angstroms)
 Number     Number       Type             X           Y           Z
 ---------------------------------------------------------------------
      1          6           0       -3.192563   -1.015492   -1.131011
      2          6           0       -1.904474   -0.907893   -0.604829
      3          6           0       -1.660187   -0.182150    0.571916
      4          6           0       -2.749906    0.427596    1.217854
      5          6           0       -4.040995    0.340240    0.700335
      6          6           0       -4.239496   -0.384663   -0.469536
      7          9           0       -5.486659   -0.484747   -0.973070
      8         15           0       -0.000482   -0.000148    1.374945
      9          6           0        0.987223   -1.346232    0.571765
     10          6           0        1.736410   -1.194904   -0.605928
     11          6           0        2.473867   -2.256274   -1.132475
     12          6           0        2.452767   -3.478050   -0.470361
     13          6           0        1.727220   -3.668599    0.700427
     14          6           0        1.005721   -2.594502    1.218257
     15          9           0        3.163306   -4.507750   -0.974177
     16          6           0        0.672069    1.528143    0.572011
     17          6           0        1.749240    2.163157    1.214703
     18          6           0        2.319641    3.324693    0.697226
     19          6           0        1.787318    3.862883   -0.469185
     20          6           0        0.713337    3.275549   -1.127266
     21          6           0        0.162015    2.106329   -0.601271
     22          9           0        2.324704    4.992850   -0.972577
     23          1           0       -3.392202   -1.577322   -2.037900
     24          1           0       -1.084104   -1.401447   -1.116684
     25          1           0       -2.587684    0.975707    2.142735
     26          1           0       -4.886789    0.810092    1.191679
     27          1           0        1.752303   -0.237859   -1.118199
     28          1           0        3.059114   -2.148223   -2.040092
     29          1           0        1.744564   -4.635754    1.192220
     30          1           0        0.451085   -2.728097    2.143824
     31          1           0        2.145881    1.745764    2.136994
     32          1           0        3.152738    3.819201    1.186060
     33          1           0        0.323750    3.732183   -2.031511
     34          1           0       -0.678826    1.645799   -1.110672
 ---------------------------------------------------------------------

 SCF Done:  E(RB3LYP) =  -1333.99897565     a.u. after    1 cycles

 Excitation energies and oscillator strengths:

 Excited State   1:      Singlet-A      4.5732 eV  271.11 nm  f=0.1347  <S**2>=0.000
      81 -> 82         0.69338
 This state for optimization and/or second-order correction.
 Total Energy, E(TD-HF/TD-DFT) =  -1333.83091328
 Copying the excited state density for this state as the 1-particle RhoCI density.

 Excited State   2:      Singlet-A      4.5759 eV  270.95 nm  f=0.1358  <S**2>=0.000
      81 -> 83         0.69324

 Excited State   3:      Singlet-A      4.5873 eV  270.28 nm  f=0.0095  <S**2>=0.000
      81 -> 84         0.68881

 Excited State   4:      Singlet-A      4.9056 eV  252.74 nm  f=0.0018  <S**2>=0.000
      81 -> 85         0.67630

 Excited State   5:      Singlet-A      4.9070 eV  252.67 nm  f=0.0017  <S**2>=0.000
      81 -> 86         0.67599

 Excited State   6:      Singlet-A      5.2401 eV  236.61 nm  f=0.0075  <S**2>=0.000
      79 -> 82         0.10407
      80 -> 83         0.10487
      81 -> 87         0.67226

 Excited State   7:      Singlet-A      5.4165 eV  228.90 nm  f=0.0000  <S**2>=0.000
      75 -> 84        -0.14170
      77 -> 82        -0.17885
      78 -> 83         0.16348
      79 -> 82         0.28541
      79 -> 83         0.29209
      79 -> 85         0.15127
      80 -> 82        -0.29193
      80 -> 83         0.28151
      80 -> 86        -0.14135

 Excited State   8:      Singlet-A      5.4451 eV  227.70 nm  f=0.0019  <S**2>=0.000
      76 -> 82         0.21175
      77 -> 82        -0.10820
      77 -> 83        -0.15431
      77 -> 87         0.12125
      78 -> 82         0.15457
      78 -> 83        -0.11534
      79 -> 84         0.30581
      79 -> 86        -0.15070
      80 -> 84         0.39600
      80 -> 85         0.15062
      81 -> 85        -0.12424

 Excited State   9:      Singlet-A      5.4461 eV  227.66 nm  f=0.0021  <S**2>=0.000
      76 -> 83        -0.20907
      77 -> 82         0.14512
      77 -> 83        -0.10967
      78 -> 82         0.11247
      78 -> 83         0.16016
      78 -> 87         0.12108
      79 -> 84         0.39237
      79 -> 85        -0.14525
      80 -> 84        -0.31202
      80 -> 86        -0.15619
      81 -> 86        -0.12493

 Excited State  10:      Singlet-A      5.6623 eV  218.97 nm  f=0.0020  <S**2>=0.000
      75 -> 84        -0.16402
      76 -> 84        -0.10300
      77 -> 82        -0.24531
      78 -> 83         0.23458
      79 -> 83        -0.22859
      79 -> 85         0.22251
      79 -> 86         0.10997
      80 -> 82         0.34089
      80 -> 85         0.11176
      80 -> 86        -0.23585

 The electronic state is 1-A.
 Alpha  occ. eigenvalues --  -77.09285 -24.70934 -24.70934 -24.70930 -10.27931
 Alpha  occ. eigenvalues --  -10.27931 -10.27925 -10.20802 -10.20801 -10.20799
 Alpha  occ. eigenvalues --  -10.20702 -10.20702 -10.20697 -10.20479 -10.20478
 Alpha  occ. eigenvalues --  -10.20477 -10.20318 -10.20318 -10.20313 -10.20310
 Alpha  occ. eigenvalues --  -10.20309 -10.20306  -6.55986  -4.72247  -4.72247
 Alpha  occ. eigenvalues --   -4.71743  -1.22113  -1.22113  -1.22108  -0.87207
 Alpha  occ. eigenvalues --   -0.86556  -0.86554  -0.77802  -0.76322  -0.76286
 Alpha  occ. eigenvalues --   -0.76284  -0.74868  -0.74866  -0.65458  -0.63139
 Alpha  occ. eigenvalues --   -0.62958  -0.62957  -0.60998  -0.60997  -0.57074
 Alpha  occ. eigenvalues --   -0.54666  -0.54664  -0.54254  -0.49446  -0.49443
 Alpha  occ. eigenvalues --   -0.49382  -0.48019  -0.48018  -0.46311  -0.46308
 Alpha  occ. eigenvalues --   -0.46295  -0.45865  -0.44921  -0.44920  -0.43857
 Alpha  occ. eigenvalues --   -0.43706  -0.43704  -0.42082  -0.40157  -0.40108
 Alpha  occ. eigenvalues --   -0.40107  -0.37162  -0.37158  -0.36437  -0.34998
 Alpha  occ. eigenvalues --   -0.34996  -0.34951  -0.33923  -0.33922  -0.27228
 Alpha  occ. eigenvalues --   -0.26847  -0.26601  -0.26597  -0.25427  -0.25420
 Alpha  occ. eigenvalues --   -0.21920
 Alpha virt. eigenvalues --   -0.02515  -0.02508  -0.02412  -0.01175  -0.01169
 Alpha virt. eigenvalues --   -0.00310   0.05878   0.05893   0.08466   0.10089
 Alpha virt. eigenvalues --    0.10090   0.12845   0.13530   0.13531   0.14053

 Mulliken charges:
               1
     1  C   -0.188239
     2  C   -0.167026
     3  C   -0.124993
     4  C   -0.180179
     5  C   -0.183538
     6  C    0.346879
     7  F   -0.301426
     8  P    0.435551
     9  C   -0.104408
    10  C   -0.186198
    11  C   -0.178462
    12  C    0.356126
    13  C   -0.199055
    14  C   -0.155323
    15  F   -0.298414
    16  C   -0.079684
    17  C   -0.162667
    18  C   -0.183292
    19  C    0.390834
    20  C   -0.185706
    21  C   -0.151166
    22  F   -0.282048
    23  H    0.142501
    24  H    0.150292
    25  H    0.128364
    26  H    0.138696
    27  H    0.133332
    28  H    0.143820
    29  H    0.141475
    30  H    0.139408
    31  H    0.157812
    32  H    0.161468
    33  H    0.164803
    34  H    0.180464
 Sum of Mulliken charges =  -0.00000

 Dipole moment (field-independent basis, Debye):
    X=              1.6398    Y=              2.9157    Z=              1.4583  Tot=              3.6492
 Quadrupole moment (field-independent basis, Debye-Ang):
   XX=           -144.2856   YY=           -134.7616   ZZ=           -121.8126
   XY=              4.4006   XZ=              0.4206   YZ=             -0.8101

 Summary of Natural Population Analysis:

                                       Natural Population
                Natural  -----------------------------------------------
    Atom  No    Charge         Core      Valence    Rydberg      Total
 -----------------------------------------------------------------------
      C    1   -0.30199      1.99899     4.28778    0.01522     6.30199
      C    2   -0.22614      1.99900     4.20980    0.01733     6.22614
      C    3   -0.48163      1.99888     4.45611    0.02664     6.48163
      C    4   -0.22995      1.99903     4.21450    0.01641     6.22995
      C    5   -0.29990      1.99900     4.28576    0.01515     6.29990
      C    6    0.38245      1.99844     3.59115    0.02796     5.61755
      F    7   -0.33655      1.99994     7.33110    0.00552     9.33655
      P    8    1.21013      9.99756     3.74076    0.05155    13.78987
      C    9   -0.44566      1.99887     4.42232    0.02447     6.44566
      C   10   -0.27083      1.99900     4.25329    0.01854     6.27083
      C   11   -0.28472      1.99899     4.27095    0.01478     6.28472
      C   12    0.39940      1.99844     3.57439    0.02777     5.60060
      C   13   -0.32990      1.99899     4.31470    0.01620     6.32990
      C   14   -0.18643      1.99902     4.17204    0.01537     6.18643
      F   15   -0.33373      1.99994     7.32828    0.00551     9.33373
      C   16   -0.39027      1.99891     4.36606    0.02530     6.39027
      C   17   -0.19642      1.99903     4.18202    0.01537     6.19642
      C   18   -0.30152      1.99899     4.28761    0.01493     6.30152
      C   19    0.45493      1.99844     3.51953    0.02710     5.54507
      C   20   -0.29989      1.99898     4.28610    0.01480     6.29989
      C   21   -0.19352      1.99901     4.17843    0.01607     6.19352
      F   22   -0.31935      1.99994     7.31381    0.00559     9.31935
      H   23    0.24980      0.00000     0.74900    0.00120     0.75020
      H   24    0.24683      0.00000     0.75148    0.00169     0.75317
      H   25    0.23148      0.00000     0.76763    0.00089     0.76852
      H   26    0.24722      0.00000     0.75154    0.00124     0.75278
      H   27    0.23814      0.00000     0.76051    0.00135     0.76186
      H   28    0.25007      0.00000     0.74873    0.00121     0.74993
      H   29    0.24941      0.00000     0.74941    0.00117     0.75059
      H   30    0.23839      0.00000     0.76048    0.00113     0.76161
      H   31    0.24738      0.00000     0.75143    0.00118     0.75262
      H   32    0.25827      0.00000     0.74055    0.00118     0.74173
      H   33    0.26036      0.00000     0.73847    0.00117     0.73964
      H   34    0.26412      0.00000     0.73467    0.00120     0.73588
 =======================================================================
   * Total *   -0.00000     51.97740   109.59039    0.43221   162.00000

 Normal termination of Gaussian 16 at Sun Aug 23 16:26:21 2020.
