 Gaussian 16, Revision A.03,

 ---------------------------------
 # opt=CalcAll B3LYP/6-31G* scf=qc
 ---------------------------------

 -------------------
 Title Card Required
 -------------------
 Symbolic Z-matrix:
 Charge =  0 Multiplicity = 1

 SCF Done:  E(RB3LYP) =  -1036.27361510     a.u. after    8 cycles
 SCF Done:  E(RB3LYP) =  -1036.27648908     a.u. after   15 cycles
 SCF Done:  E(RB3LYP) =  -1036.29211681     a.u. after   17 cycles
 SCF Done:  E(RB3LYP) =  -1036.29701050     a.u. after   17 cycles
 SCF Done:  E(RB3LYP) =  -1036.29811473     a.u. after   15 cycles
 SCF Done:  E(RB3LYP) =  -1036.29821829     a.u. after   11 cycles
 SCF Done:  E(RB3LYP) =  -1036.29822189     a.u. after    3 cycles
 SCF Done:  E(RB3LYP) =  -1036.29823287     a.u. after    7 cycles
 SCF Done:  E(RB3LYP) =  -1036.29822962     a.u. after    3 cycles
 SCF Done:  E(RB3LYP) =  -1036.29823858     a.u. after    3 cycles
 SCF Done:  E(RB3LYP) =  -1036.29822918     a.u. after    3 cycles
 SCF Done:  E(RB3LYP) =  -1036.29823373     a.u. after    3 cycles
 SCF Done:  E(RB3LYP) =  -1036.29822969     a.u. after    4 cycles
 SCF Done:  E(RB3LYP) =  -1036.29823724     a.u. after    4 cycles
 Optimization completed.
    -- Stationary point found.
 Normal termination of Gaussian 16 at Sun Aug 23 07:49:25 2020.

 ----------------------------------------------------------------------
 # freq B3LYP/6-31G* scf=qc volume NMR pop=NPA density=current Geom=All
 Check Guess=Read
 ----------------------------------------------------------------------

 Structure from the checkpoint file:  "phosphine_1_conf82.chk"
 -------------------
 Title Card Required
 -------------------
 Charge =  0 Multiplicity = 1

 SCF Done:  E(RB3LYP) =  -1036.29823724     a.u. after    1 cycles

      1  C    Isotropic =    68.2080   Anisotropy =   167.3250

      2  C    Isotropic =    68.7394   Anisotropy =   164.1408

      3  C    Isotropic =    61.0499   Anisotropy =   164.1502

      4  C    Isotropic =    56.0758   Anisotropy =   179.3925

      5  C    Isotropic =    62.6340   Anisotropy =   173.9650

      6  C    Isotropic =    68.6817   Anisotropy =   163.8851

      7  P    Isotropic =   361.5233   Anisotropy =    39.8371

      8  C    Isotropic =    56.0703   Anisotropy =   179.4947

      9  C    Isotropic =    62.5504   Anisotropy =   174.0154

     10  C    Isotropic =    68.6820   Anisotropy =   163.8797

     11  C    Isotropic =    68.1658   Anisotropy =   167.3549

     12  C    Isotropic =    68.7182   Anisotropy =   164.1353

     13  C    Isotropic =    61.0059   Anisotropy =   164.0547

     14  C    Isotropic =    56.2002   Anisotropy =   179.4127

     15  C    Isotropic =    60.9687   Anisotropy =   164.0598

     16  C    Isotropic =    68.7262   Anisotropy =   164.1218

     17  C    Isotropic =    68.1410   Anisotropy =   167.3768

     18  C    Isotropic =    68.6797   Anisotropy =   163.9030

     19  C    Isotropic =    62.5337   Anisotropy =   174.1628

     20  H    Isotropic =    25.0197   Anisotropy =     3.6439

     21  H    Isotropic =    24.9265   Anisotropy =     4.5948

     22  H    Isotropic =    24.6201   Anisotropy =     9.2678

     23  H    Isotropic =    25.4107   Anisotropy =    12.2452

     24  H    Isotropic =    25.0497   Anisotropy =     6.0885

     25  H    Isotropic =    25.3991   Anisotropy =    12.2133

     26  H    Isotropic =    25.0473   Anisotropy =     6.0853

     27  H    Isotropic =    25.0194   Anisotropy =     3.6439

     28  H    Isotropic =    24.9280   Anisotropy =     4.5894

     29  H    Isotropic =    24.6127   Anisotropy =     9.2450

     30  H    Isotropic =    24.6095   Anisotropy =     9.2333

     31  H    Isotropic =    24.9261   Anisotropy =     4.5841

     32  H    Isotropic =    25.0176   Anisotropy =     3.6473

     33  H    Isotropic =    25.0455   Anisotropy =     6.0873

     34  H    Isotropic =    25.3923   Anisotropy =    12.2139

  Exact polarizability: 224.264  -0.166 223.866  -0.057  -0.214 165.159
 Approx polarizability: 331.158  -0.388 330.360  -0.139  -0.504 308.288

                      1                      2                      3
                      A                      A                      A
 Frequencies --     23.4371                26.0787                39.3796
 Red. masses --      3.7962                 3.8054                 3.6914
 Frc consts  --      0.0012                 0.0015                 0.0034
 IR Inten    --      0.2810                 0.2797                 0.0030

                      4                      5                      6
                      A                      A                      A
 Frequencies --     53.4503                53.5375                70.8663
 Red. masses --      5.2553                 5.2440                 5.1657
 Frc consts  --      0.0088                 0.0089                 0.0153
 IR Inten    --      0.0864                 0.0883                 0.3100

                      7                      8                      9
                      A                      A                      A
 Frequencies --    181.8688               202.4341               203.1689
 Red. masses --      4.5647                 4.6415                 4.6402
 Frc consts  --      0.0890                 0.1121                 0.1128
 IR Inten    --      0.3521                 1.1267                 1.1339

                     10                     11                     12
                      A                      A                      A
 Frequencies --    245.6303               259.8026               260.3248
 Red. masses --      5.7405                 4.7237                 4.7235
 Frc consts  --      0.2041                 0.1879                 0.1886
 IR Inten    --      0.4827                 0.2296                 0.2272

                     13                     14                     15
                      A                      A                      A
 Frequencies --    408.8746               409.0851               412.5429
 Red. masses --      3.0810                 3.0845                 3.6025
 Frc consts  --      0.3035                 0.3041                 0.3612
 IR Inten    --      1.9770                 1.9820                 0.1608

                     16                     17                     18
                      A                      A                      A
 Frequencies --    417.2625               429.3557               429.6674
 Red. masses --      4.6026                 7.3275                 7.2944
 Frc consts  --      0.4721                 0.7959                 0.7934
 IR Inten    --      0.5619                 7.6995                 7.7343

                     19                     20                     21
                      A                      A                      A
 Frequencies --    509.4209               509.8764               516.4868
 Red. masses --      4.2490                 4.2421                 4.5943
 Frc consts  --      0.6497                 0.6498                 0.7221
 IR Inten    --     26.0686                26.1082                11.9332

                     22                     23                     24
                      A                      A                      A
 Frequencies --    632.7531               632.7667               633.3946
 Red. masses --      6.4274                 6.4276                 6.4370
 Frc consts  --      1.5162                 1.5163                 1.5215
 IR Inten    --      0.1838                 0.1821                 0.0161

                     25                     26                     27
                      A                      A                      A
 Frequencies --    691.9116               705.1417               705.2795
 Red. masses --      6.5789                 5.7522                 5.7851
 Frc consts  --      1.8557                 1.6851                 1.6955
 IR Inten    --      0.8065                 1.1651                 1.0683

                     28                     29                     30
                      A                      A                      A
 Frequencies --    712.3497               712.5179               713.4719
 Red. masses --      2.1991                 2.1901                 2.1397
 Frc consts  --      0.6575                 0.6551                 0.6417
 IR Inten    --     26.2825                26.6345                16.5178

                     31                     32                     33
                      A                      A                      A
 Frequencies --    761.4263               762.8358               763.0370
 Red. masses --      1.6127                 1.6474                 1.6496
 Frc consts  --      0.5509                 0.5648                 0.5659
 IR Inten    --     19.1997                25.0233                24.8234

                     34                     35                     36
                      A                      A                      A
 Frequencies --    866.2701               866.5473               868.9530
 Red. masses --      1.2476                 1.2475                 1.2461
 Frc consts  --      0.5516                 0.5519                 0.5544
 IR Inten    --      0.2259                 0.2141                 0.1288

                     37                     38                     39
                      A                      A                      A
 Frequencies --    932.8949               933.2661               934.5144
 Red. masses --      1.3440                 1.3436                 1.3381
 Frc consts  --      0.6892                 0.6895                 0.6885
 IR Inten    --      1.2650                 1.2597                 0.0452

                     40                     41                     42
                      A                      A                      A
 Frequencies --    975.8905               976.1682               977.8780
 Red. masses --      1.3610                 1.3607                 1.3550
 Frc consts  --      0.7637                 0.7639                 0.7634
 IR Inten    --      0.0184                 0.0143                 0.1350

                     43                     44                     45
                      A                      A                      A
 Frequencies --   1000.3558              1000.5198              1001.2344
 Red. masses --      1.2541                 1.2540                 1.2523
 Frc consts  --      0.7394                 0.7396                 0.7397
 IR Inten    --      0.0781                 0.0811                 0.0009

                     46                     47                     48
                      A                      A                      A
 Frequencies --   1015.3780              1015.4034              1015.7734
 Red. masses --      6.3121                 6.3121                 6.3069
 Frc consts  --      3.8342                 3.8344                 3.8341
 IR Inten    --      4.3510                 4.3540                 0.0729

                     49                     50                     51
                      A                      A                      A
 Frequencies --   1052.7577              1052.7624              1052.9275
 Red. masses --      3.3156                 3.3157                 3.2523
 Frc consts  --      2.1650                 2.1652                 2.1244
 IR Inten    --      2.0661                 2.0895                 0.0485

                     52                     53                     54
                      A                      A                      A
 Frequencies --   1107.8471              1108.1481              1109.5217
 Red. masses --      1.9027                 1.8665                 1.6551
 Frc consts  --      1.3759                 1.3504                 1.2005
 IR Inten    --      4.5768                 3.9115                 2.9313

                     55                     56                     57
                      A                      A                      A
 Frequencies --   1110.8291              1110.9343              1116.1174
 Red. masses --      2.1805                 2.1971                 2.6133
 Frc consts  --      1.5853                 1.5977                 1.9181
 IR Inten    --      9.3510                 9.4610                 1.1980

                     58                     59                     60
                      A                      A                      A
 Frequencies --   1193.5256              1193.9560              1193.9742
 Red. masses --      1.1034                 1.1000                 1.1001
 Frc consts  --      0.9261                 0.9239                 0.9240
 IR Inten    --      0.0013                 0.1297                 0.1246

                     61                     62                     63
                      A                      A                      A
 Frequencies --   1219.3624              1219.5234              1220.8350
 Red. masses --      1.1477                 1.1478                 1.1473
 Frc consts  --      1.0054                 1.0058                 1.0075
 IR Inten    --      5.9967                 6.0989                 0.3864

                     64                     65                     66
                      A                      A                      A
 Frequencies --   1325.0814              1328.7001              1328.9366
 Red. masses --      3.4963                 3.4996                 3.5182
 Frc consts  --      3.6170                 3.6402                 3.6608
 IR Inten    --      2.6337                 2.4293                 2.4482

                     67                     68                     69
                      A                      A                      A
 Frequencies --   1365.2130              1365.3903              1365.6451
 Red. masses --      1.6572                 1.6473                 1.6405
 Frc consts  --      1.8198                 1.8094                 1.8027
 IR Inten    --      0.5627                 0.1520                 2.6963

                     70                     71                     72
                      A                      A                      A
 Frequencies --   1480.5548              1480.9816              1481.0834
 Red. masses --      2.1109                 2.1154                 2.1163
 Frc consts  --      2.7262                 2.7337                 2.7352
 IR Inten    --     16.4729                 6.8328                 6.5731

                     73                     74                     75
                      A                      A                      A
 Frequencies --   1531.0663              1531.6464              1531.6578
 Red. masses --      2.0154                 1.9975                 1.9981
 Frc consts  --      2.7836                 2.7610                 2.7618
 IR Inten    --      1.9902                10.1037                10.1930

                     76                     77                     78
                      A                      A                      A
 Frequencies --   1630.1781              1630.4502              1630.4925
 Red. masses --      5.1019                 5.1102                 5.1127
 Frc consts  --      7.9883                 8.0039                 8.0082
 IR Inten    --      0.3871                 0.0521                 0.0475

                     79                     80                     81
                      A                      A                      A
 Frequencies --   1646.1698              1646.1988              1647.9684
 Red. masses --      5.2696                 5.2697                 5.2824
 Frc consts  --      8.4136                 8.4139                 8.4524
 IR Inten    --      3.4560                 3.5611                 0.3251

                     82                     83                     84
                      A                      A                      A
 Frequencies --   3176.0409              3176.1709              3176.1777
 Red. masses --      1.0854                 1.0854                 1.0853
 Frc consts  --      6.4506                 6.4510                 6.4509
 IR Inten    --      2.0593                 2.3253                 1.6189

                     85                     86                     87
                      A                      A                      A
 Frequencies --   3182.6456              3182.6887              3182.7525
 Red. masses --      1.0875                 1.0875                 1.0876
 Frc consts  --      6.4901                 6.4904                 6.4912
 IR Inten    --      0.7382                 0.7971                 0.1604

                     88                     89                     90
                      A                      A                      A
 Frequencies --   3192.8327              3192.8887              3193.0033
 Red. masses --      1.0916                 1.0916                 1.0917
 Frc consts  --      6.5567                 6.5569                 6.5579
 IR Inten    --     11.8427                10.4211                45.9396

                     91                     92                     93
                      A                      A                      A
 Frequencies --   3203.9096              3203.9786              3204.3543
 Red. masses --      1.0941                 1.0942                 1.0943
 Frc consts  --      6.6171                 6.6177                 6.6199
 IR Inten    --     41.5263                40.7440                 5.4742

                     94                     95                     96
                      A                      A                      A
 Frequencies --   3210.0763              3210.1887              3211.0468
 Red. masses --      1.0957                 1.0956                 1.0956
 Frc consts  --      6.6521                 6.6520                 6.6555
 IR Inten    --     20.2102                19.3238                16.3457

 - Thermochemistry -
 -------------------
 Temperature   298.150 Kelvin.  Pressure   1.00000 Atm.
 Atom     1 has atomic number  6 and mass  12.00000

 Molecular mass:   262.09114 amu.
 Principal axes and moments of inertia in atomic units:
                           1         2         3
     Eigenvalues --  5160.337825165.903268678.99181
           X            0.99948  -0.03229  -0.00001
           Y            0.03229   0.99948  -0.00006
           Z            0.00001   0.00006   1.00000
 This molecule is an asymmetric top.
 Rotational symmetry number  1.
 Warning -- assumption of classical behavior for rotation
           may cause significant error
 Rotational temperatures (Kelvin)      0.01678     0.01677     0.00998
 Rotational constants (GHZ):           0.34973     0.34936     0.20794
 Zero-point vibrational energy     720030.4 (Joules/Mol)
                                  172.09139 (Kcal/Mol)
 Warning -- explicit consideration of  21 degrees of freedom as
           vibrations may cause significant error
 Vibrational temperatures:     33.72    37.52    56.66    76.90    77.03
          (Kelvin)            101.96   261.67   291.26   292.31   353.41
                              373.80   374.55   588.28   588.58   593.56
                              600.35   617.75   618.20   732.94   733.60
                              743.11   910.39   910.41   911.31   995.51
                             1014.54  1014.74  1024.91  1025.15  1026.53
                             1095.52  1097.55  1097.84  1246.37  1246.77
                             1250.23  1342.23  1342.76  1344.56  1404.09
                             1404.49  1406.95  1439.29  1439.52  1440.55
                             1460.90  1460.94  1461.47  1514.68  1514.69
                             1514.93  1593.94  1594.38  1596.35  1598.24
                             1598.39  1605.84  1717.22  1717.84  1717.86
                             1754.39  1754.62  1756.51  1906.50  1911.70
                             1912.04  1964.24  1964.49  1964.86  2130.19
                             2130.80  2130.95  2202.86  2203.70  2203.71
                             2345.46  2345.85  2345.92  2368.47  2368.51
                             2371.06  4569.61  4569.80  4569.81  4579.12
                             4579.18  4579.27  4593.77  4593.85  4594.02
                             4609.71  4609.81  4610.35  4618.58  4618.75
                             4619.98

 Zero-point correction=                           0.274245 (Hartree/Particle)
 Thermal correction to Energy=                    0.290153
 Thermal correction to Enthalpy=                  0.291097
 Thermal correction to Gibbs Free Energy=         0.227921
 Sum of electronic and zero-point Energies=          -1036.023992
 Sum of electronic and thermal Energies=             -1036.008084
 Sum of electronic and thermal Enthalpies=           -1036.007140
 Sum of electronic and thermal Free Energies=        -1036.070317

                     E (Thermal)             CV                S
                      KCal/Mol        Cal/Mol-Kelvin    Cal/Mol-Kelvin
 Total                  182.074             62.527            132.966
 Electronic               0.000              0.000              0.000
 Translational            0.889              2.981             42.590
 Rotational               0.889              2.981             33.803
 Vibrational            180.296             56.565             56.574
 Vibration     1          0.593              1.985              6.319
 Vibration     2          0.593              1.985              6.107
 Vibration     3          0.594              1.981              5.290
 Vibration     4          0.596              1.976              4.685
 Vibration     5          0.596              1.976              4.682
 Vibration     6          0.598              1.968              4.129
 Vibration     7          0.630              1.864              2.309
 Vibration     8          0.639              1.836              2.111
 Vibration     9          0.639              1.835              2.104
 Vibration    10          0.660              1.770              1.762
 Vibration    11          0.668              1.746              1.663
 Vibration    12          0.668              1.745              1.660
 Vibration    13          0.773              1.451              0.931
 Vibration    14          0.773              1.450              0.930
 Vibration    15          0.776              1.443              0.918
 Vibration    16          0.780              1.433              0.901
 Vibration    17          0.791              1.406              0.861
 Vibration    18          0.791              1.406              0.860
 Vibration    19          0.865              1.229              0.635
 Vibration    20          0.865              1.228              0.634
 Vibration    21          0.872              1.213              0.618

                           ! Non-Optimized Parameters !
 Normal termination of Gaussian 16 at Sun Aug 23 08:00:18 2020.
 Gaussian 16:  ES64L-G16RevA.03 25-Dec-2016

 ----------------------------------------------------------------------
 # TD(NStates=10, Root=1) B3LYP/6-31G* scf=qc volume pop=NPA density=cu
 rrent Geom=AllCheck Guess=Read
 ----------------------------------------------------------------------

 Structure from the checkpoint file:  "phosphine_1_conf83.chk"
 -------------------
 Title Card Required
 -------------------
 Charge =  0 Multiplicity = 1

                         Standard orientation:
 ---------------------------------------------------------------------
 Center     Atomic      Atomic             Coordinates (Angstroms)
 Number     Number       Type             X           Y           Z
 ---------------------------------------------------------------------
      1          6           0       -2.380598   -3.558043    0.649651
      2          6           0       -2.820005   -2.903563   -0.503121
      3          6           0       -2.080884   -1.844214   -1.028895
      4          6           0       -0.900900   -1.407039   -0.403314
      5          6           0       -0.468893   -2.074887    0.752700
      6          6           0       -1.202651   -3.143411    1.272911
      7         15           0        0.000467   -0.000046   -1.206816
      8          6           0       -0.767987    1.483248   -0.402493
      9          6           0       -1.550989    1.443091    0.761343
     10          6           0       -2.109634    2.611863    1.283332
     11          6           0       -1.891281    3.838369    0.653941
     12          6           0       -1.116245    3.891584   -0.506517
     13          6           0       -0.568118    2.722579   -1.033921
     14          6           0        1.669368   -0.076305   -0.402684
     15          6           0        2.643959   -0.865125   -1.037139
     16          6           0        3.930766   -0.974525   -0.510471
     17          6           0        4.271234   -0.280196    0.652335
     18          6           0        3.316956    0.518246    1.284804
     19          6           0        2.025147    0.618371    0.763523
     20          1           0       -2.949559   -4.390393    1.055564
     21          1           0       -3.732306   -3.224818   -0.999134
     22          1           0       -2.419195   -1.352328   -1.938145
     23          1           0        0.446056   -1.762346    1.246913
     24          1           0       -0.852184   -3.651411    2.167935
     25          1           0       -1.728875    0.494995    1.259950
     26          1           0       -2.715958    2.562496    2.184384
     27          1           0       -2.327837    4.746584    1.061198
     28          1           0       -0.947500    4.841513   -1.007202
     29          1           0        0.017954    2.769268   -1.949046
     30          1           0        2.391982   -1.393276   -1.954020
     31          1           0        4.670010   -1.592585   -1.013503
     32          1           0        5.276281   -0.355877    1.059088
     33          1           0        3.576632    1.065295    2.187723
     34          1           0        1.292022    1.243311    1.264618
 ---------------------------------------------------------------------

 SCF Done:  E(RB3LYP) =  -1036.29823724     a.u. after    1 cycles

 Excitation energies and oscillator strengths:

 Excited State   1:      Singlet-A      4.5077 eV  275.05 nm  f=0.1265  <S**2>=0.000
      69 -> 70         0.69700
 This state for optimization and/or second-order correction.
 Total Energy, E(TD-HF/TD-DFT) =  -1036.13258278
 Copying the excited state density for this state as the 1-particle RhoCI density.

 Excited State   2:      Singlet-A      4.5139 eV  274.67 nm  f=0.1290  <S**2>=0.000
      69 -> 71         0.69690

 Excited State   3:      Singlet-A      4.7580 eV  260.58 nm  f=0.0022  <S**2>=0.000
      67 -> 70         0.12410
      68 -> 71        -0.12540
      69 -> 72         0.67459

 Excited State   4:      Singlet-A      5.0571 eV  245.17 nm  f=0.0002  <S**2>=0.000
      66 -> 70         0.16489
      67 -> 71         0.10645
      68 -> 70        -0.10673
      69 -> 74         0.63003

 Excited State   5:      Singlet-A      5.0596 eV  245.05 nm  f=0.0002  <S**2>=0.000
      66 -> 71        -0.16653
      67 -> 70        -0.10736
      68 -> 71        -0.10772
      69 -> 75         0.62861

 Excited State   6:      Singlet-A      5.1514 eV  240.68 nm  f=0.0085  <S**2>=0.000
      69 -> 73         0.67887

 Excited State   7:      Singlet-A      5.4271 eV  228.45 nm  f=0.0146  <S**2>=0.000
      63 -> 72        -0.16602
      64 -> 74        -0.14679
      65 -> 75        -0.14079
      67 -> 70         0.42980
      68 -> 71        -0.41101
      69 -> 72        -0.16532

 Excited State   8:      Singlet-A      5.5129 eV  224.90 nm  f=0.0006  <S**2>=0.000
      63 -> 74         0.14346
      64 -> 70         0.12318
      64 -> 72         0.22737
      64 -> 75        -0.11677
      65 -> 71         0.11911
      65 -> 72         0.16703
      65 -> 74        -0.11483
      66 -> 70        -0.22761
      67 -> 70         0.18202
      67 -> 71        -0.18594
      68 -> 70         0.19805
      68 -> 71         0.19845
      68 -> 72        -0.16193
      69 -> 74         0.28612

 Excited State   9:      Singlet-A      5.5160 eV  224.77 nm  f=0.0004  <S**2>=0.000
      63 -> 75         0.14477
      64 -> 71         0.11067
      64 -> 72        -0.16801
      64 -> 74        -0.11189
      65 -> 70        -0.11981
      65 -> 72         0.22747
      65 -> 75         0.11657
      66 -> 71         0.22366
      67 -> 70         0.18088
      67 -> 71         0.18903
      67 -> 72         0.16391
      68 -> 70        -0.19861
      68 -> 71         0.20522
      69 -> 75         0.28874

 Excited State  10:      Singlet-A      5.6179 eV  220.69 nm  f=0.0009  <S**2>=0.000
      65 -> 71        -0.10091
      67 -> 71         0.47123
      68 -> 70         0.49365

 The electronic state is 1-A.
 Alpha  occ. eigenvalues --  -77.08112 -10.19448 -10.19446 -10.19445 -10.19152
 Alpha  occ. eigenvalues --  -10.19147 -10.19139 -10.19121 -10.19117 -10.19112
 Alpha  occ. eigenvalues --  -10.19035 -10.19032 -10.19025 -10.19011 -10.19008
 Alpha  occ. eigenvalues --  -10.19002 -10.18967 -10.18963 -10.18955  -6.54842
 Alpha  occ. eigenvalues --   -4.71102  -4.71101  -4.70600  -0.85560  -0.84848
 Alpha  occ. eigenvalues --   -0.84842  -0.76669  -0.74367  -0.74364  -0.74329
 Alpha  occ. eigenvalues --   -0.73822  -0.73820  -0.64436  -0.60339  -0.60308
 Alpha  occ. eigenvalues --   -0.60303  -0.59207  -0.59206  -0.55448  -0.51436
 Alpha  occ. eigenvalues --   -0.51433  -0.49296  -0.45441  -0.45438  -0.44775
 Alpha  occ. eigenvalues --   -0.44344  -0.44343  -0.44068  -0.41947  -0.41870
 Alpha  occ. eigenvalues --   -0.41866  -0.40382  -0.40374  -0.36843  -0.36355
 Alpha  occ. eigenvalues --   -0.36347  -0.35898  -0.34254  -0.34250  -0.34224
 Alpha  occ. eigenvalues --   -0.31886  -0.31881  -0.26772  -0.25454  -0.25440
 Alpha  occ. eigenvalues --   -0.25242  -0.24705  -0.24702  -0.21147
 Alpha virt. eigenvalues --   -0.01888  -0.01872  -0.00829   0.00173   0.00421
 Alpha virt. eigenvalues --    0.00435   0.06869   0.06901   0.09492   0.11037
 Alpha virt. eigenvalues --    0.11042   0.13901   0.14528   0.14531   0.15165

 Mulliken charges:
               1
     1  C   -0.123420
     2  C   -0.117383
     3  C   -0.161275
     4  C   -0.087358
     5  C   -0.147587
     6  C   -0.121510
     7  P    0.450507
     8  C   -0.100169
     9  C   -0.167886
    10  C   -0.115338
    11  C   -0.146019
    12  C   -0.125153
    13  C   -0.155176
    14  C   -0.133358
    15  C   -0.175687
    16  C   -0.120604
    17  C   -0.166753
    18  C   -0.121151
    19  C   -0.170308
    20  H    0.145476
    21  H    0.142082
    22  H    0.146615
    23  H    0.179380
    24  H    0.146760
    25  H    0.137906
    26  H    0.130923
    27  H    0.126412
    28  H    0.128669
    29  H    0.134528
    30  H    0.112917
    31  H    0.113765
    32  H    0.108655
    33  H    0.118018
    34  H    0.133523
 Sum of Mulliken charges =  -0.00000

 Dipole moment (field-independent basis, Debye):
    X=             -3.3401    Y=             -1.8083    Z=             -0.1989  Tot=              3.8034
 Quadrupole moment (field-independent basis, Debye-Ang):
   XX=           -119.0408   YY=           -108.0367   ZZ=           -110.6524
   XY=              4.4036   XZ=             -0.5918   YZ=             -1.2595

 Summary of Natural Population Analysis:

                                       Natural Population
                Natural  -----------------------------------------------
    Atom  No    Charge         Core      Valence    Rydberg      Total
 -----------------------------------------------------------------------
      C    1   -0.20141      1.99909     4.18842    0.01389     6.20141
      C    2   -0.23258      1.99910     4.21932    0.01417     6.23258
      C    3   -0.20964      1.99902     4.19534    0.01529     6.20964
      C    4   -0.38784      1.99891     4.36351    0.02543     6.38784
      C    5   -0.20197      1.99900     4.18683    0.01615     6.20197
      C    6   -0.23280      1.99909     4.21955    0.01416     6.23280
      P    7    1.24233      9.99750     3.70993    0.05025    13.75767
      C    8   -0.42236      1.99888     4.39937    0.02412     6.42236
      C    9   -0.24979      1.99899     4.23346    0.01734     6.24979
      C   10   -0.22287      1.99909     4.20960    0.01418     6.22287
      C   11   -0.24974      1.99909     4.23531    0.01533     6.24974
      C   12   -0.24749      1.99910     4.23347    0.01493     6.24749
      C   13   -0.20510      1.99901     4.19056    0.01553     6.20510
      C   14   -0.48634      1.99887     4.46152    0.02596     6.48634
      C   15   -0.23937      1.99902     4.22396    0.01639     6.23937
      C   16   -0.24068      1.99910     4.22671    0.01487     6.24068
      C   17   -0.29343      1.99909     4.27774    0.01660     6.29343
      C   18   -0.23421      1.99909     4.22045    0.01467     6.23421
      C   19   -0.25153      1.99899     4.23463    0.01791     6.25153
      H   20    0.24175      0.00000     0.75742    0.00083     0.75825
      H   21    0.24261      0.00000     0.75648    0.00091     0.75739
      H   22    0.24051      0.00000     0.75833    0.00116     0.75949
      H   23    0.26323      0.00000     0.73552    0.00125     0.73677
      H   24    0.24564      0.00000     0.75350    0.00086     0.75436
      H   25    0.24044      0.00000     0.75825    0.00131     0.75956
      H   26    0.23819      0.00000     0.76093    0.00088     0.76181
      H   27    0.23364      0.00000     0.76548    0.00088     0.76636
      H   28    0.23700      0.00000     0.76213    0.00087     0.76300
      H   29    0.23556      0.00000     0.76324    0.00121     0.76444
      H   30    0.22308      0.00000     0.77597    0.00095     0.77692
      H   31    0.22946      0.00000     0.76961    0.00093     0.77054
      H   32    0.22587      0.00000     0.77323    0.00090     0.77413
      H   33    0.23234      0.00000     0.76677    0.00088     0.76766
      H   34    0.23753      0.00000     0.76090    0.00157     0.76247
 =======================================================================
   * Total *   -0.00000     45.98001    91.64742    0.37257   138.00000

 Normal termination of Gaussian 16 at Sun Aug 23 08:12:20 2020.
