 Gaussian 16, Revision A.03,

 ---------------------------------
 # opt=CalcAll B3LYP/6-31G* scf=qc
 ---------------------------------

 -------------------
 Title Card Required
 -------------------
 Symbolic Z-matrix:
 Charge =  0 Multiplicity = 1

 SCF Done:  E(RB3LYP) =  -1036.26932652     a.u. after    8 cycles
 SCF Done:  E(RB3LYP) =  -1036.27072809     a.u. after   17 cycles
 SCF Done:  E(RB3LYP) =  -1036.29283289     a.u. after   15 cycles
 SCF Done:  E(RB3LYP) =  -1036.29553476     a.u. after   17 cycles
 SCF Done:  E(RB3LYP) =  -1036.29709464     a.u. after   17 cycles
 SCF Done:  E(RB3LYP) =  -1036.29693771     a.u. after   17 cycles
 SCF Done:  E(RB3LYP) =  -1036.29807471     a.u. after   10 cycles
 SCF Done:  E(RB3LYP) =  -1036.29822665     a.u. after   13 cycles
 SCF Done:  E(RB3LYP) =  -1036.29823712     a.u. after    9 cycles
 SCF Done:  E(RB3LYP) =  -1036.29823459     a.u. after    6 cycles
 SCF Done:  E(RB3LYP) =  -1036.29823886     a.u. after    4 cycles
 SCF Done:  E(RB3LYP) =  -1036.29823408     a.u. after    3 cycles
 SCF Done:  E(RB3LYP) =  -1036.29823977     a.u. after    2 cycles
 SCF Done:  E(RB3LYP) =  -1036.29823810     a.u. after    3 cycles
 SCF Done:  E(RB3LYP) =  -1036.29823769     a.u. after    2 cycles
 SCF Done:  E(RB3LYP) =  -1036.29823780     a.u. after    2 cycles
 Optimization completed.
    -- Stationary point found.
 Normal termination of Gaussian 16 at Sun Aug 23 08:09:27 2020.

 ----------------------------------------------------------------------
 # freq B3LYP/6-31G* scf=qc volume NMR pop=NPA density=current Geom=All
 Check Guess=Read
 ----------------------------------------------------------------------

 Structure from the checkpoint file:  "phosphine_1_conf32.chk"
 -------------------
 Title Card Required
 -------------------
 Charge =  0 Multiplicity = 1

 SCF Done:  E(RB3LYP) =  -1036.29823780     a.u. after    1 cycles

      1  C    Isotropic =    68.1687   Anisotropy =   167.2989

      2  C    Isotropic =    68.7368   Anisotropy =   164.1277

      3  C    Isotropic =    61.0366   Anisotropy =   164.1652

      4  C    Isotropic =    56.1284   Anisotropy =   179.4140

      5  C    Isotropic =    62.6094   Anisotropy =   174.0419

      6  C    Isotropic =    68.6706   Anisotropy =   163.8932

      7  P    Isotropic =   361.6085   Anisotropy =    39.9506

      8  C    Isotropic =    56.1510   Anisotropy =   179.4231

      9  C    Isotropic =    60.9818   Anisotropy =   164.0950

     10  C    Isotropic =    68.7266   Anisotropy =   164.1470

     11  C    Isotropic =    68.1535   Anisotropy =   167.3481

     12  C    Isotropic =    68.6739   Anisotropy =   163.8893

     13  C    Isotropic =    62.5489   Anisotropy =   174.0747

     14  C    Isotropic =    56.0920   Anisotropy =   179.4326

     15  C    Isotropic =    61.0272   Anisotropy =   164.1283

     16  C    Isotropic =    68.7300   Anisotropy =   164.1335

     17  C    Isotropic =    68.1649   Anisotropy =   167.3139

     18  C    Isotropic =    68.6807   Anisotropy =   163.8801

     19  C    Isotropic =    62.5938   Anisotropy =   174.0106

     20  H    Isotropic =    25.0214   Anisotropy =     3.6402

     21  H    Isotropic =    24.9277   Anisotropy =     4.5877

     22  H    Isotropic =    24.6137   Anisotropy =     9.2592

     23  H    Isotropic =    25.4036   Anisotropy =    12.2404

     24  H    Isotropic =    25.0482   Anisotropy =     6.0882

     25  H    Isotropic =    24.6096   Anisotropy =     9.2434

     26  H    Isotropic =    24.9249   Anisotropy =     4.5881

     27  H    Isotropic =    25.0187   Anisotropy =     3.6436

     28  H    Isotropic =    25.0475   Anisotropy =     6.0848

     29  H    Isotropic =    25.3972   Anisotropy =    12.2168

     30  H    Isotropic =    24.6137   Anisotropy =     9.2544

     31  H    Isotropic =    24.9273   Anisotropy =     4.5901

     32  H    Isotropic =    25.0217   Anisotropy =     3.6403

     33  H    Isotropic =    25.0490   Anisotropy =     6.0859

     34  H    Isotropic =    25.4049   Anisotropy =    12.2281

  Exact polarizability: 224.278   0.071 224.032  -0.094   0.061 165.009
 Approx polarizability: 331.182   0.165 330.698  -0.222   0.142 307.960

                      1                      2                      3
                      A                      A                      A
 Frequencies --     23.6679                25.1243                39.3046
 Red. masses --      3.7979                 3.8022                 3.6900
 Frc consts  --      0.0013                 0.0014                 0.0034
 IR Inten    --      0.2826                 0.2810                 0.0019

                      4                      5                      6
                      A                      A                      A
 Frequencies --     53.4228                53.4869                70.7523
 Red. masses --      5.2519                 5.2440                 5.1680
 Frc consts  --      0.0088                 0.0088                 0.0152
 IR Inten    --      0.0839                 0.0876                 0.3104

                      7                      8                      9
                      A                      A                      A
 Frequencies --    181.6398               202.3777               202.8030
 Red. masses --      4.5615                 4.6437                 4.6418
 Frc consts  --      0.0887                 0.1121                 0.1125
 IR Inten    --      0.3535                 1.1320                 1.1342

                     10                     11                     12
                      A                      A                      A
 Frequencies --    245.5429               259.6272               259.9981
 Red. masses --      5.7383                 4.7182                 4.7239
 Frc consts  --      0.2038                 0.1874                 0.1881
 IR Inten    --      0.4824                 0.2273                 0.2251

                     13                     14                     15
                      A                      A                      A
 Frequencies --    408.8770               408.9726               412.4186
 Red. masses --      3.0786                 3.0815                 3.6346
 Frc consts  --      0.3032                 0.3037                 0.3642
 IR Inten    --      1.9630                 1.9710                 0.1694

                     16                     17                     18
                      A                      A                      A
 Frequencies --    417.1261               429.4496               429.6609
 Red. masses --      4.5537                 7.3156                 7.3006
 Frc consts  --      0.4668                 0.7949                 0.7941
 IR Inten    --      0.5540                 7.6956                 7.6987

                     19                     20                     21
                      A                      A                      A
 Frequencies --    509.4660               509.6364               516.5078
 Red. masses --      4.2479                 4.2464                 4.5884
 Frc consts  --      0.6496                 0.6498                 0.7212
 IR Inten    --     26.0630                26.1116                11.9637

                     22                     23                     24
                      A                      A                      A
 Frequencies --    632.7270               632.7480               633.3756
 Red. masses --      6.4271                 6.4274                 6.4371
 Frc consts  --      1.5160                 1.5162                 1.5215
 IR Inten    --      0.1787                 0.1806                 0.0165

                     25                     26                     27
                      A                      A                      A
 Frequencies --    691.8245               705.1739               705.2363
 Red. masses --      6.5805                 5.7602                 5.7371
 Frc consts  --      1.8557                 1.6876                 1.6812
 IR Inten    --      0.7930                 1.1173                 1.0864

                     28                     29                     30
                      A                      A                      A
 Frequencies --    712.3300               712.4079               713.4157
 Red. masses --      2.1967                 2.1978                 2.1357
 Frc consts  --      0.6567                 0.6572                 0.6404
 IR Inten    --     26.3627                26.4764                16.6254

                     31                     32                     33
                      A                      A                      A
 Frequencies --    761.4470               762.8919               762.9650
 Red. masses --      1.6150                 1.6486                 1.6481
 Frc consts  --      0.5517                 0.5653                 0.5652
 IR Inten    --     19.2392                24.9380                24.8857

                     34                     35                     36
                      A                      A                      A
 Frequencies --    866.2248               866.3310               868.8855
 Red. masses --      1.2477                 1.2476                 1.2462
 Frc consts  --      0.5516                 0.5517                 0.5543
 IR Inten    --      0.2246                 0.2201                 0.1313

                     37                     38                     39
                      A                      A                      A
 Frequencies --    932.9548               933.0824               934.3454
 Red. masses --      1.3441                 1.3439                 1.3382
 Frc consts  --      0.6893                 0.6894                 0.6883
 IR Inten    --      1.2679                 1.2641                 0.0299

                     40                     41                     42
                      A                      A                      A
 Frequencies --    975.8501               975.9389               977.7688
 Red. masses --      1.3612                 1.3611                 1.3553
 Frc consts  --      0.7637                 0.7638                 0.7634
 IR Inten    --      0.0162                 0.0152                 0.1392

                     43                     44                     45
                      A                      A                      A
 Frequencies --   1000.3925              1000.4334              1001.1690
 Red. masses --      1.2541                 1.2542                 1.2523
 Frc consts  --      0.7395                 0.7396                 0.7396
 IR Inten    --      0.0818                 0.0804                 0.0003

                     46                     47                     48
                      A                      A                      A
 Frequencies --   1015.3603              1015.3749              1015.7536
 Red. masses --      6.3115                 6.3126                 6.3107
 Frc consts  --      3.8338                 3.8345                 3.8362
 IR Inten    --      4.3612                 4.3611                 0.0504

                     49                     50                     51
                      A                      A                      A
 Frequencies --   1052.7008              1052.7719              1052.9421
 Red. masses --      3.3123                 3.3186                 3.2551
 Frc consts  --      2.1626                 2.1671                 2.1263
 IR Inten    --      2.0920                 2.0574                 0.0588

                     52                     53                     54
                      A                      A                      A
 Frequencies --   1107.7701              1108.0624              1109.4434
 Red. masses --      1.8900                 1.8781                 1.6553
 Frc consts  --      1.3665                 1.3586                 1.2005
 IR Inten    --      4.3732                 4.2158                 2.9435

                     55                     56                     57
                      A                      A                      A
 Frequencies --   1110.8638              1110.8942              1115.9099
 Red. masses --      2.1768                 2.2013                 2.6110
 Frc consts  --      1.5827                 1.6006                 1.9157
 IR Inten    --      9.1884                 9.5061                 1.1280

                     58                     59                     60
                      A                      A                      A
 Frequencies --   1193.5379              1193.9525              1194.0098
 Red. masses --      1.1034                 1.1001                 1.1001
 Frc consts  --      0.9261                 0.9239                 0.9241
 IR Inten    --      0.0019                 0.1326                 0.1285

                     61                     62                     63
                      A                      A                      A
 Frequencies --   1219.1620              1219.5285              1220.7988
 Red. masses --      1.1475                 1.1478                 1.1474
 Frc consts  --      1.0049                 1.0058                 1.0075
 IR Inten    --      6.0175                 5.8807                 0.5494

                     64                     65                     66
                      A                      A                      A
 Frequencies --   1325.0536              1328.7850              1328.9061
 Red. masses --      3.4865                 3.4808                 3.5263
 Frc consts  --      3.6066                 3.6211                 3.6691
 IR Inten    --      2.6379                 2.4369                 2.4444

                     67                     68                     69
                      A                      A                      A
 Frequencies --   1365.0899              1365.3140              1365.7687
 Red. masses --      1.6594                 1.6526                 1.6390
 Frc consts  --      1.8219                 1.8150                 1.8013
 IR Inten    --      0.3545                 1.3128                 1.7258

                     70                     71                     72
                      A                      A                      A
 Frequencies --   1480.5512              1481.0311              1481.0562
 Red. masses --      2.1104                 2.1155                 2.1154
 Frc consts  --      2.7256                 2.7339                 2.7339
 IR Inten    --     16.6386                 6.6309                 6.6105

                     73                     74                     75
                      A                      A                      A
 Frequencies --   1531.1107              1531.5678              1531.7536
 Red. masses --      2.0155                 1.9990                 1.9971
 Frc consts  --      2.7839                 2.7626                 2.7607
 IR Inten    --      2.0786                10.1339                10.1075

                     76                     77                     78
                      A                      A                      A
 Frequencies --   1630.1956              1630.4819              1630.4984
 Red. masses --      5.1013                 5.1123                 5.1132
 Frc consts  --      7.9875                 8.0075                 8.0090
 IR Inten    --      0.3935                 0.0473                 0.0465

                     79                     80                     81
                      A                      A                      A
 Frequencies --   1646.1708              1646.2167              1647.9906
 Red. masses --      5.2716                 5.2681                 5.2814
 Frc consts  --      8.4167                 8.4116                 8.4510
 IR Inten    --      3.5013                 3.5340                 0.3190

                     82                     83                     84
                      A                      A                      A
 Frequencies --   3176.1021              3176.1283              3176.2157
 Red. masses --      1.0854                 1.0854                 1.0853
 Frc consts  --      6.4508                 6.4508                 6.4511
 IR Inten    --      2.1931                 1.9046                 1.9246

                     85                     86                     87
                      A                      A                      A
 Frequencies --   3182.6664              3182.7034              3182.7943
 Red. masses --      1.0875                 1.0875                 1.0876
 Frc consts  --      6.4902                 6.4905                 6.4913
 IR Inten    --      0.7633                 0.6387                 0.2843

                     88                     89                     90
                      A                      A                      A
 Frequencies --   3192.8638              3192.8951              3193.0197
 Red. masses --      1.0916                 1.0916                 1.0917
 Frc consts  --      6.5568                 6.5569                 6.5580
 IR Inten    --     10.2220                12.1088                45.7886

                     91                     92                     93
                      A                      A                      A
 Frequencies --   3203.9383              3203.9602              3204.3474
 Red. masses --      1.0941                 1.0941                 1.0942
 Frc consts  --      6.6172                 6.6174                 6.6197
 IR Inten    --     41.3145                41.5448                 4.4128

                     94                     95                     96
                      A                      A                      A
 Frequencies --   3210.1014              3210.1338              3211.0212
 Red. masses --      1.0957                 1.0957                 1.0956
 Frc consts  --      6.6524                 6.6523                 6.6558
 IR Inten    --     20.2362                19.9199                16.2844

 - Thermochemistry -
 -------------------
 Temperature   298.150 Kelvin.  Pressure   1.00000 Atm.
 Atom     1 has atomic number  6 and mass  12.00000

 Molecular mass:   262.09114 amu.
 Principal axes and moments of inertia in atomic units:
                           1         2         3
     Eigenvalues --  5161.040125164.691798681.13637
           X            0.99980   0.02023  -0.00002
           Y           -0.02023   0.99980   0.00002
           Z            0.00002  -0.00002   1.00000
 This molecule is an asymmetric top.
 Rotational symmetry number  1.
 Warning -- assumption of classical behavior for rotation
           may cause significant error
 Rotational temperatures (Kelvin)      0.01678     0.01677     0.00998
 Rotational constants (GHZ):           0.34969     0.34944     0.20789
 Zero-point vibrational energy     720002.7 (Joules/Mol)
                                  172.08478 (Kcal/Mol)
 Warning -- explicit consideration of  21 degrees of freedom as
           vibrations may cause significant error
 Vibrational temperatures:     34.05    36.15    56.55    76.86    76.96
          (Kelvin)            101.80   261.34   291.18   291.79   353.28
                              373.55   374.08   588.28   588.42   593.38
                              600.15   617.88   618.19   733.01   733.25
                              743.14   910.35   910.38   911.29   995.38
                             1014.59  1014.68  1024.88  1025.00  1026.45
                             1095.55  1097.63  1097.74  1246.30  1246.46
                             1250.13  1342.31  1342.50  1344.31  1404.03
                             1404.16  1406.79  1439.34  1439.40  1440.46
                             1460.88  1460.90  1461.44  1514.60  1514.70
                             1514.95  1593.83  1594.25  1596.24  1598.29
                             1598.33  1605.55  1717.23  1717.83  1717.91
                             1754.10  1754.63  1756.46  1906.46  1911.83
                             1912.00  1964.06  1964.38  1965.04  2130.18
                             2130.87  2130.91  2202.93  2203.58  2203.85
                             2345.49  2345.90  2345.92  2368.47  2368.54
                             2371.09  4569.70  4569.74  4569.87  4579.15
                             4579.20  4579.33  4593.82  4593.86  4594.04
                             4609.75  4609.78  4610.34  4618.62  4618.67
                             4619.94

 Zero-point correction=                           0.274235 (Hartree/Particle)
 Thermal correction to Energy=                    0.290147
 Thermal correction to Enthalpy=                  0.291091
 Thermal correction to Gibbs Free Energy=         0.227878
 Sum of electronic and zero-point Energies=          -1036.024003
 Sum of electronic and thermal Energies=             -1036.008090
 Sum of electronic and thermal Enthalpies=           -1036.007146
 Sum of electronic and thermal Free Energies=        -1036.070360

                     E (Thermal)             CV                S
                      KCal/Mol        Cal/Mol-Kelvin    Cal/Mol-Kelvin
 Total                  182.070             62.532            133.044
 Electronic               0.000              0.000              0.000
 Translational            0.889              2.981             42.590
 Rotational               0.889              2.981             33.803
 Vibrational            180.293             56.571             56.651
 Vibration     1          0.593              1.985              6.300
 Vibration     2          0.593              1.985              6.181
 Vibration     3          0.594              1.981              5.294
 Vibration     4          0.596              1.976              4.686
 Vibration     5          0.596              1.976              4.684
 Vibration     6          0.598              1.968              4.132
 Vibration     7          0.630              1.865              2.311
 Vibration     8          0.639              1.837              2.111
 Vibration     9          0.639              1.836              2.108
 Vibration    10          0.660              1.770              1.762
 Vibration    11          0.668              1.746              1.664
 Vibration    12          0.668              1.746              1.662
 Vibration    13          0.773              1.451              0.931
 Vibration    14          0.773              1.451              0.930
 Vibration    15          0.776              1.443              0.918
 Vibration    16          0.780              1.433              0.902
 Vibration    17          0.791              1.406              0.860
 Vibration    18          0.791              1.406              0.860
 Vibration    19          0.865              1.229              0.635
 Vibration    20          0.865              1.229              0.634
 Vibration    21          0.872              1.213              0.618

                           ! Non-Optimized Parameters !
 Normal termination of Gaussian 16 at Sun Aug 23 08:21:36 2020.
 Gaussian 16:  ES64L-G16RevA.03 25-Dec-2016

 ----------------------------------------------------------------------
 # TD(NStates=10, Root=1) B3LYP/6-31G* scf=qc volume pop=NPA density=cu
 rrent Geom=AllCheck Guess=Read
 ----------------------------------------------------------------------

 Structure from the checkpoint file:  "phosphine_1_conf33.chk"
 -------------------
 Title Card Required
 -------------------
 Charge =  0 Multiplicity = 1

                         Standard orientation:
 ---------------------------------------------------------------------
 Center     Atomic      Atomic             Coordinates (Angstroms)
 Number     Number       Type             X           Y           Z
 ---------------------------------------------------------------------
      1          6           0       -3.005889    3.048046    0.650531
      2          6           0       -3.312908    2.326531   -0.505066
      3          6           0       -2.388200    1.424698   -1.031066
      4          6           0       -1.149092    1.213010   -0.402930
      5          6           0       -0.851818    1.946327    0.755930
      6          6           0       -1.772906    2.858128    1.276396
      7         15           0        0.000347    0.000240   -1.206460
      8          6           0        1.625211    0.388681   -0.402321
      9          6           0        2.432476    1.349555   -1.034518
     10          6           0        3.675878    1.698594   -0.507929
     11          6           0        4.142619    1.077482    0.652478
     12          6           0        3.357133    0.111014    1.282617
     13          6           0        2.107047   -0.229903    0.761433
     14          6           0       -0.475651   -1.601256   -0.402489
     15          6           0       -0.041662   -2.780636   -1.031318
     16          6           0       -0.360822   -4.032039   -0.504795
     17          6           0       -1.137355   -4.126089    0.652089
     18          6           0       -1.587100   -2.962861    1.278726
     19          6           0       -1.257552   -1.709645    0.757677
     20          1           0       -3.720837    3.758813    1.056671
     21          1           0       -4.267799    2.473817   -1.003075
     22          1           0       -2.626710    0.880960   -1.942436
     23          1           0        0.104169    1.808258    1.252008
     24          1           0       -1.525377    3.419972    2.173625
     25          1           0        2.084311    1.823510   -1.949536
     26          1           0        4.284449    2.446868   -1.009179
     27          1           0        5.115615    1.340554    1.059130
     28          1           0        3.716401   -0.379942    2.183641
     29          1           0        1.505799   -0.983835    1.260588
     30          1           0        0.547068   -2.715970   -1.943645
     31          1           0       -0.012731   -4.933018   -1.003389
     32          1           0       -1.395788   -5.100365    1.058646
     33          1           0       -2.196015   -3.028774    2.176967
     34          1           0       -1.614225   -0.812258    1.254218
 ---------------------------------------------------------------------

 SCF Done:  E(RB3LYP) =  -1036.29823780     a.u. after    1 cycles

 Excitation energies and oscillator strengths:

 Excited State   1:      Singlet-A      4.5088 eV  274.98 nm  f=0.1274  <S**2>=0.000
      69 -> 70         0.69708
 This state for optimization and/or second-order correction.
 Total Energy, E(TD-HF/TD-DFT) =  -1036.13254168
 Copying the excited state density for this state as the 1-particle RhoCI density.

 Excited State   2:      Singlet-A      4.5117 eV  274.81 nm  f=0.1285  <S**2>=0.000
      69 -> 71         0.69704

 Excited State   3:      Singlet-A      4.7564 eV  260.67 nm  f=0.0022  <S**2>=0.000
      67 -> 70         0.12312
      68 -> 71        -0.12376
      69 -> 72         0.67471

 Excited State   4:      Singlet-A      5.0571 eV  245.17 nm  f=0.0002  <S**2>=0.000
      66 -> 70        -0.16638
      67 -> 70         0.13472
      68 -> 71         0.13445
      69 -> 74         0.62996

 Excited State   5:      Singlet-A      5.0583 eV  245.11 nm  f=0.0002  <S**2>=0.000
      66 -> 71         0.16719
      67 -> 71         0.13571
      68 -> 70        -0.13553
      69 -> 75         0.62926

 Excited State   6:      Singlet-A      5.1505 eV  240.72 nm  f=0.0085  <S**2>=0.000
      69 -> 73         0.67906

 Excited State   7:      Singlet-A      5.4276 eV  228.43 nm  f=0.0147  <S**2>=0.000
      63 -> 72        -0.16604
      64 -> 74         0.14300
      65 -> 75        -0.14004
      67 -> 70         0.42484
      68 -> 71        -0.41618
      69 -> 72        -0.16496

 Excited State   8:      Singlet-A      5.5137 eV  224.87 nm  f=0.0005  <S**2>=0.000
      63 -> 74         0.14344
      64 -> 71        -0.11193
      64 -> 72        -0.22127
      65 -> 70        -0.11522
      65 -> 72         0.17600
      66 -> 70         0.22648
      67 -> 70        -0.26403
      68 -> 71        -0.27763
      68 -> 72         0.16313
      69 -> 74         0.28625

 Excited State   9:      Singlet-A      5.5151 eV  224.81 nm  f=0.0004  <S**2>=0.000
      63 -> 75         0.14403
      64 -> 70         0.11121
      64 -> 72         0.17643
      65 -> 71        -0.11083
      65 -> 72         0.22140
      66 -> 71        -0.22475
      67 -> 71        -0.26891
      67 -> 72        -0.16401
      68 -> 70         0.27581
      69 -> 75         0.28755

 Excited State  10:      Singlet-A      5.6182 eV  220.68 nm  f=0.0009  <S**2>=0.000
      67 -> 71         0.47495
      68 -> 70         0.48560

 The electronic state is 1-A.
 Alpha  occ. eigenvalues --  -77.08113 -10.19448 -10.19447 -10.19446 -10.19150
 Alpha  occ. eigenvalues --  -10.19145 -10.19144 -10.19120 -10.19116 -10.19116
 Alpha  occ. eigenvalues --  -10.19033 -10.19029 -10.19029 -10.19010 -10.19006
 Alpha  occ. eigenvalues --  -10.19006 -10.18964 -10.18960 -10.18960  -6.54844
 Alpha  occ. eigenvalues --   -4.71103  -4.71103  -4.70601  -0.85560  -0.84847
 Alpha  occ. eigenvalues --   -0.84844  -0.76669  -0.74367  -0.74365  -0.74329
 Alpha  occ. eigenvalues --   -0.73822  -0.73820  -0.64436  -0.60336  -0.60308
 Alpha  occ. eigenvalues --   -0.60306  -0.59207  -0.59207  -0.55448  -0.51436
 Alpha  occ. eigenvalues --   -0.51434  -0.49295  -0.45441  -0.45439  -0.44773
 Alpha  occ. eigenvalues --   -0.44345  -0.44345  -0.44067  -0.41946  -0.41869
 Alpha  occ. eigenvalues --   -0.41867  -0.40379  -0.40376  -0.36844  -0.36353
 Alpha  occ. eigenvalues --   -0.36349  -0.35899  -0.34253  -0.34251  -0.34224
 Alpha  occ. eigenvalues --   -0.31885  -0.31883  -0.26779  -0.25450  -0.25444
 Alpha  occ. eigenvalues --   -0.25243  -0.24704  -0.24703  -0.21143
 Alpha virt. eigenvalues --   -0.01882  -0.01875  -0.00831   0.00172   0.00425
 Alpha virt. eigenvalues --    0.00433   0.06877   0.06891   0.09493   0.11038
 Alpha virt. eigenvalues --    0.11039   0.13904   0.14528   0.14529   0.15164

 Mulliken charges:
               1
     1  C   -0.132024
     2  C   -0.116594
     3  C   -0.167535
     4  C   -0.099190
     5  C   -0.150011
     6  C   -0.122948
     7  P    0.450585
     8  C   -0.133753
     9  C   -0.172214
    10  C   -0.122942
    11  C   -0.170343
    12  C   -0.119061
    13  C   -0.175161
    14  C   -0.088306
    15  C   -0.152455
    16  C   -0.123534
    17  C   -0.133804
    18  C   -0.116054
    19  C   -0.160418
    20  H    0.138068
    21  H    0.136082
    22  H    0.138515
    23  H    0.174392
    24  H    0.141197
    25  H    0.111982
    26  H    0.111846
    27  H    0.105662
    28  H    0.115376
    29  H    0.124087
    30  H    0.143630
    31  H    0.136614
    32  H    0.136819
    33  H    0.139108
    34  H    0.152384
 Sum of Mulliken charges =  -0.00000

 Dipole moment (field-independent basis, Debye):
    X=             -3.7090    Y=             -0.7629    Z=             -0.1966  Tot=              3.7917
 Quadrupole moment (field-independent basis, Debye-Ang):
   XX=           -119.5675   YY=           -107.4857   ZZ=           -110.6764
   XY=             -3.6476   XZ=             -1.2494   YZ=              0.5675

 Summary of Natural Population Analysis:

                                       Natural Population
                Natural  -----------------------------------------------
    Atom  No    Charge         Core      Valence    Rydberg      Total
 -----------------------------------------------------------------------
      C    1   -0.21975      1.99909     4.20617    0.01449     6.21975
      C    2   -0.23160      1.99910     4.21828    0.01422     6.23160
      C    3   -0.22052      1.99902     4.20588    0.01562     6.22052
      C    4   -0.41144      1.99890     4.38657    0.02596     6.41144
      C    5   -0.20652      1.99900     4.19105    0.01647     6.20652
      C    6   -0.23576      1.99909     4.22233    0.01433     6.23576
      P    7    1.24213      9.99750     3.71013    0.05024    13.75787
      C    8   -0.48920      1.99886     4.46486    0.02548     6.48920
      C    9   -0.23495      1.99901     4.21957    0.01637     6.23495
      C   10   -0.24511      1.99910     4.23095    0.01506     6.24511
      C   11   -0.30107      1.99910     4.28518    0.01679     6.30107
      C   12   -0.23068      1.99909     4.21696    0.01463     6.23068
      C   13   -0.26300      1.99899     4.24590    0.01811     6.26300
      C   14   -0.39604      1.99889     4.37309    0.02406     6.39604
      C   15   -0.19880      1.99901     4.18455    0.01523     6.19880
      C   16   -0.24391      1.99910     4.23013    0.01469     6.24391
      C   17   -0.22376      1.99909     4.21012    0.01455     6.22376
      C   18   -0.22361      1.99909     4.21047    0.01405     6.22361
      C   19   -0.23330      1.99899     4.21750    0.01680     6.23330
      H   20    0.23855      0.00000     0.76058    0.00087     0.76145
      H   21    0.23968      0.00000     0.75938    0.00094     0.76032
      H   22    0.23602      0.00000     0.76288    0.00109     0.76398
      H   23    0.26033      0.00000     0.73831    0.00136     0.73967
      H   24    0.24310      0.00000     0.75602    0.00088     0.75690
      H   25    0.22299      0.00000     0.77603    0.00098     0.77701
      H   26    0.22877      0.00000     0.77032    0.00091     0.77123
      H   27    0.22459      0.00000     0.77452    0.00089     0.77541
      H   28    0.23107      0.00000     0.76805    0.00088     0.76893
      H   29    0.23238      0.00000     0.76611    0.00151     0.76762
      H   30    0.24017      0.00000     0.75858    0.00125     0.75983
      H   31    0.24063      0.00000     0.75850    0.00087     0.75937
      H   32    0.23812      0.00000     0.76103    0.00085     0.76188
      H   33    0.24199      0.00000     0.75714    0.00087     0.75801
      H   34    0.24849      0.00000     0.75025    0.00125     0.75151
 =======================================================================
   * Total *    0.00000     45.98001    91.64741    0.37258   138.00000

 Normal termination of Gaussian 16 at Sun Aug 23 08:34:01 2020.
