 Gaussian 16, Revision A.03,

 ---------------------------------
 # opt=CalcAll B3LYP/6-31G* scf=qc
 ---------------------------------

 -------------------
 Title Card Required
 -------------------
 Symbolic Z-matrix:
 Charge =  0 Multiplicity = 1

 SCF Done:  E(RB3LYP) =  -814.835694331     a.u. after    7 cycles
 SCF Done:  E(RB3LYP) =  -814.857513344     a.u. after   15 cycles
 SCF Done:  E(RB3LYP) =  -814.888682155     a.u. after   13 cycles
 SCF Done:  E(RB3LYP) =  -814.893949471     a.u. after   15 cycles
 SCF Done:  E(RB3LYP) =  -814.901444117     a.u. after   13 cycles
 SCF Done:  E(RB3LYP) =  -814.905122558     a.u. after   14 cycles
 SCF Done:  E(RB3LYP) =  -814.907346967     a.u. after   13 cycles
 SCF Done:  E(RB3LYP) =  -814.907665268     a.u. after   15 cycles
 SCF Done:  E(RB3LYP) =  -814.908539299     a.u. after   11 cycles
 SCF Done:  E(RB3LYP) =  -814.908612420     a.u. after   11 cycles
 SCF Done:  E(RB3LYP) =  -814.908651167     a.u. after    5 cycles
 SCF Done:  E(RB3LYP) =  -814.908655030     a.u. after    4 cycles
 SCF Done:  E(RB3LYP) =  -814.908656530     a.u. after    3 cycles
 SCF Done:  E(RB3LYP) =  -814.908656435     a.u. after    2 cycles
 Optimization completed.
    -- Stationary point found.
 Normal termination of Gaussian 16 at Sun Aug 23 10:38:09 2020.

 ----------------------------------------------------------------------
 # freq B3LYP/6-31G* scf=qc volume NMR pop=NPA density=current Geom=All
 Check Guess=Read
 ----------------------------------------------------------------------

 Structure from the checkpoint file:  "phosphine_2_conf32.chk"
 -------------------
 Title Card Required
 -------------------
 Charge =  0 Multiplicity = 1

 SCF Done:  E(RB3LYP) =  -814.908656435     a.u. after    1 cycles

      1  C    Isotropic =   173.6230   Anisotropy =    24.8833

      2  C    Isotropic =   164.6683   Anisotropy =    17.3430

      3  C    Isotropic =   159.7941   Anisotropy =    25.3193

      4  C    Isotropic =   154.7525   Anisotropy =    26.1257

      5  H    Isotropic =    30.6909   Anisotropy =     5.4993

      6  H    Isotropic =    30.7822   Anisotropy =     6.0869

      7  P    Isotropic =   390.0240   Anisotropy =    30.7566

      8  C    Isotropic =   162.5374   Anisotropy =    27.3209

      9  H    Isotropic =    31.0015   Anisotropy =     7.0560

     10  H    Isotropic =    30.5508   Anisotropy =     4.8339

     11  C    Isotropic =   158.2269   Anisotropy =    12.3413

     12  C    Isotropic =   167.5015   Anisotropy =    11.3454

     13  C    Isotropic =   176.3330   Anisotropy =    18.9133

     14  C    Isotropic =   156.0788   Anisotropy =    26.3548

     15  H    Isotropic =    30.5564   Anisotropy =     9.0646

     16  H    Isotropic =    30.7756   Anisotropy =     4.4862

     17  C    Isotropic =   156.8139   Anisotropy =    22.4256

     18  C    Isotropic =   164.1428   Anisotropy =    15.8042

     19  C    Isotropic =   173.3174   Anisotropy =    25.6105

     20  H    Isotropic =    31.0735   Anisotropy =    10.0953

     21  H    Isotropic =    31.3367   Anisotropy =     7.8990

     22  H    Isotropic =    31.3064   Anisotropy =     8.6136

     23  H    Isotropic =    30.0738   Anisotropy =     6.0796

     24  H    Isotropic =    30.9142   Anisotropy =     6.1671

     25  H    Isotropic =    30.6091   Anisotropy =     7.9970

     26  H    Isotropic =    30.8426   Anisotropy =     4.1882

     27  H    Isotropic =    30.5070   Anisotropy =     8.8358

     28  H    Isotropic =    30.2505   Anisotropy =     6.9021

     29  H    Isotropic =    30.6681   Anisotropy =     9.5453

     30  H    Isotropic =    30.5757   Anisotropy =     5.2539

     31  H    Isotropic =    31.4905   Anisotropy =     9.4963

     32  H    Isotropic =    31.1961   Anisotropy =     9.9915

     33  H    Isotropic =    30.9637   Anisotropy =     5.0054

     34  H    Isotropic =    30.5493   Anisotropy =     7.8113

     35  H    Isotropic =    30.4089   Anisotropy =     4.8933

     36  H    Isotropic =    30.5288   Anisotropy =     7.7526

     37  H    Isotropic =    30.9881   Anisotropy =     5.0056

     38  H    Isotropic =    31.2736   Anisotropy =     7.9755

     39  H    Isotropic =    31.0671   Anisotropy =     9.9093

     40  H    Isotropic =    31.3370   Anisotropy =     8.7487

  Exact polarizability: 171.251   0.414 162.399   1.610   0.036 126.262
 Approx polarizability: 213.619   0.765 213.965   4.042   0.328 195.919

                      1                      2                      3
                      A                      A                      A
 Frequencies --     27.0111                35.1429                35.7168
 Red. masses --      3.2449                 3.2314                 3.0941
 Frc consts  --      0.0014                 0.0024                 0.0023
 IR Inten    --      0.0274                 0.0313                 0.1378

                      4                      5                      6
                      A                      A                      A
 Frequencies --     58.8020                70.3046                84.6048
 Red. masses --      3.0246                 1.6694                 2.2590
 Frc consts  --      0.0062                 0.0049                 0.0095
 IR Inten    --      0.0080                 0.0458                 0.2458

                      7                      8                      9
                      A                      A                      A
 Frequencies --     91.6114               107.6513               130.1052
 Red. masses --      2.1266                 2.4780                 2.4634
 Frc consts  --      0.0105                 0.0169                 0.0246
 IR Inten    --      0.0066                 0.1674                 0.0535

                     10                     11                     12
                      A                      A                      A
 Frequencies --    158.8907               179.6899               193.7762
 Red. masses --      2.5271                 1.9560                 3.1493
 Frc consts  --      0.0376                 0.0372                 0.0697
 IR Inten    --      0.0946                 0.0517                 0.0388

                     13                     14                     15
                      A                      A                      A
 Frequencies --    235.1877               242.3306               247.0228
 Red. masses --      1.8058                 1.3026                 1.1794
 Frc consts  --      0.0589                 0.0451                 0.0424
 IR Inten    --      0.2127                 0.0783                 0.0513

                     16                     17                     18
                      A                      A                      A
 Frequencies --    257.1849               266.6608               278.0758
 Red. masses --      1.7096                 1.9961                 1.9786
 Frc consts  --      0.0666                 0.0836                 0.0901
 IR Inten    --      0.1404                 0.0282                 0.0544

                     19                     20                     21
                      A                      A                      A
 Frequencies --    283.2571               310.7539               378.4293
 Red. masses --      2.1101                 2.7352                 1.9630
 Frc consts  --      0.0997                 0.1556                 0.1656
 IR Inten    --      0.0524                 0.0935                 0.3017

                     22                     23                     24
                      A                      A                      A
 Frequencies --    447.8107               472.7917               484.7331
 Red. masses --      2.1817                 2.6696                 2.5021
 Frc consts  --      0.2578                 0.3516                 0.3464
 IR Inten    --      0.3027                 0.3663                 0.2649

                     25                     26                     27
                      A                      A                      A
 Frequencies --    621.9851               644.8208               648.9275
 Red. masses --      3.3147                 3.3065                 3.4578
 Frc consts  --      0.7555                 0.8100                 0.8579
 IR Inten    --      1.5682                 7.8059                10.5222

                     28                     29                     30
                      A                      A                      A
 Frequencies --    741.7359               751.2118               760.4685
 Red. masses --      1.2633                 1.2425                 1.2189
 Frc consts  --      0.4095                 0.4131                 0.4153
 IR Inten    --      6.6675                12.3161                 3.0273

                     31                     32                     33
                      A                      A                      A
 Frequencies --    792.7574               794.1120               810.8326
 Red. masses --      1.6089                 1.6152                 1.9411
 Frc consts  --      0.5957                 0.6001                 0.7519
 IR Inten    --      4.7978                 2.2765                 2.3859

                     34                     35                     36
                      A                      A                      A
 Frequencies --    880.1249               886.9812               892.2114
 Red. masses --      1.6238                 1.3815                 1.3937
 Frc consts  --      0.7411                 0.6404                 0.6536
 IR Inten    --      1.5232                 1.8076                 2.9827

                     37                     38                     39
                      A                      A                      A
 Frequencies --    908.0630               916.4147               920.1516
 Red. masses --      1.6099                 1.4059                 1.5434
 Frc consts  --      0.7821                 0.6957                 0.7699
 IR Inten    --      2.9187                 6.9887                 6.5263

                     40                     41                     42
                      A                      A                      A
 Frequencies --    983.9489              1011.5170              1014.2322
 Red. masses --      1.8366                 2.7405                 2.7749
 Frc consts  --      1.0476                 1.6521                 1.6818
 IR Inten    --      2.4979                 0.8743                 1.9816

                     43                     44                     45
                      A                      A                      A
 Frequencies --   1058.8453              1065.7541              1068.7829
 Red. masses --      1.5987                 1.7294                 1.8222
 Frc consts  --      1.0560                 1.1573                 1.2264
 IR Inten    --      2.2788                 0.2215                 0.5246

                     46                     47                     48
                      A                      A                      A
 Frequencies --   1075.4586              1077.7619              1097.0658
 Red. masses --      1.5533                 1.4072                 1.3282
 Frc consts  --      1.0585                 0.9631                 0.9419
 IR Inten    --      1.3481                 2.6982                 2.2726

                     49                     50                     51
                      A                      A                      A
 Frequencies --   1114.4687              1117.5847              1124.2619
 Red. masses --      1.7755                 1.6754                 1.9039
 Frc consts  --      1.2993                 1.2329                 1.4179
 IR Inten    --      1.2356                 1.5929                 0.6783

                     52                     53                     54
                      A                      A                      A
 Frequencies --   1202.8508              1228.5314              1231.1973
 Red. masses --      1.3667                 1.4570                 1.4473
 Frc consts  --      1.1651                 1.2956                 1.2926
 IR Inten    --      1.9149                 3.1474                 1.8456

                     55                     56                     57
                      A                      A                      A
 Frequencies --   1257.0445              1263.4395              1264.9531
 Red. masses --      1.4230                 1.4005                 1.4272
 Frc consts  --      1.3248                 1.3171                 1.3455
 IR Inten    --      1.8609                 2.7608                 0.8215

                     58                     59                     60
                      A                      A                      A
 Frequencies --   1313.4332              1314.4941              1322.4660
 Red. masses --      1.2779                 1.2762                 1.2561
 Frc consts  --      1.2989                 1.2993                 1.2943
 IR Inten    --      3.5312                 9.0828                 3.7673

                     61                     62                     63
                      A                      A                      A
 Frequencies --   1340.7777              1343.5308              1344.9356
 Red. masses --      1.1499                 1.2347                 1.2847
 Frc consts  --      1.2179                 1.3131                 1.3692
 IR Inten    --      9.1079                11.1743                 3.0143

                     64                     65                     66
                      A                      A                      A
 Frequencies --   1351.1135              1356.3720              1397.4247
 Red. masses --      1.1316                 1.1324                 1.3428
 Frc consts  --      1.2172                 1.2275                 1.5449
 IR Inten    --      0.9428                 0.5849                 3.6366

                     67                     68                     69
                      A                      A                      A
 Frequencies --   1406.0783              1417.0690              1420.7519
 Red. masses --      1.4503                 1.5358                 1.5329
 Frc consts  --      1.6894                 1.8170                 1.8231
 IR Inten    --      6.8343                 2.6533                 0.8764

                     70                     71                     72
                      A                      A                      A
 Frequencies --   1440.5392              1440.6665              1442.7515
 Red. masses --      1.2379                 1.2413                 1.2579
 Frc consts  --      1.5135                 1.5179                 1.5427
 IR Inten    --      1.0445                 0.7163                 7.9235

                     73                     74                     75
                      A                      A                      A
 Frequencies --   1483.9605              1490.0171              1494.8883
 Red. masses --      1.0835                 1.0842                 1.0872
 Frc consts  --      1.4059                 1.4182                 1.4315
 IR Inten    --      4.9788                 0.8444                 2.4883

                     76                     77                     78
                      A                      A                      A
 Frequencies --   1513.6649              1514.6193              1518.3489
 Red. masses --      1.0758                 1.0859                 1.0700
 Frc consts  --      1.4522                 1.4677                 1.4534
 IR Inten    --      0.9625                 2.0573                 1.3752

                     79                     80                     81
                      A                      A                      A
 Frequencies --   1522.3013              1523.3734              1525.9697
 Red. masses --      1.0598                 1.0662                 1.0640
 Frc consts  --      1.4470                 1.4578                 1.4598
 IR Inten    --      1.6923                 1.2404                 1.9160

                     82                     83                     84
                      A                      A                      A
 Frequencies --   1529.7410              1529.8901              1532.2995
 Red. masses --      1.0410                 1.0411                 1.0474
 Frc consts  --      1.4353                 1.4357                 1.4490
 IR Inten    --      6.2190                 5.4952                 5.3357

                     85                     86                     87
                      A                      A                      A
 Frequencies --   1538.7375              1538.9096              1541.0522
 Red. masses --      1.0704                 1.0786                 1.0837
 Frc consts  --      1.4932                 1.5050                 1.5163
 IR Inten    --      4.2153                 2.7652                 3.6776

                     88                     89                     90
                      A                      A                      A
 Frequencies --   3013.1946              3015.0556              3016.0713
 Red. masses --      1.0599                 1.0614                 1.0661
 Frc consts  --      5.6697                 5.6850                 5.7136
 IR Inten    --     17.5728                15.2298                28.7910

                     91                     92                     93
                      A                      A                      A
 Frequencies --   3023.8752              3024.5405              3026.5993
 Red. masses --      1.0657                 1.0662                 1.0705
 Frc consts  --      5.7414                 5.7466                 5.7778
 IR Inten    --     41.0732                16.9612                18.9265

                     94                     95                     96
                      A                      A                      A
 Frequencies --   3028.6907              3030.9268              3034.7328
 Red. masses --      1.0645                 1.0611                 1.0604
 Frc consts  --      5.7531                 5.7432                 5.7540
 IR Inten    --     25.9307                48.1205                 0.8884

                     97                     98                     99
                      A                      A                      A
 Frequencies --   3039.6345              3041.2616              3043.5775
 Red. masses --      1.0368                 1.0369                 1.0398
 Frc consts  --      5.6442                 5.6507                 5.6749
 IR Inten    --     48.3594                35.2159                27.5411

                    100                    101                    102
                      A                      A                      A
 Frequencies --   3043.9289              3048.8649              3062.3322
 Red. masses --      1.0923                 1.0927                 1.0967
 Frc consts  --      5.9630                 5.9844                 6.0595
 IR Inten    --     26.5715                16.7234                31.8874

                    103                    104                    105
                      A                      A                      A
 Frequencies --   3065.1258              3068.4920              3073.3975
 Red. masses --      1.1004                 1.1027                 1.0991
 Frc consts  --      6.0914                 6.1173                 6.1166
 IR Inten    --     39.4854                34.9766                15.4135

                    106                    107                    108
                      A                      A                      A
 Frequencies --   3078.5145              3084.2309              3092.5094
 Red. masses --      1.1015                 1.0990                 1.0964
 Frc consts  --      6.1508                 6.1596                 6.1780
 IR Inten    --     41.6143                17.3874                33.0845

                    109                    110                    111
                      A                      A                      A
 Frequencies --   3104.8229              3106.6595              3106.7079
 Red. masses --      1.1028                 1.1029                 1.1018
 Frc consts  --      6.2636                 6.2713                 6.2652
 IR Inten    --     64.9263                58.7218                49.2160

                    112                    113                    114
                      A                      A                      A
 Frequencies --   3110.2593              3111.2051              3111.7343
 Red. masses --      1.1015                 1.1019                 1.1016
 Frc consts  --      6.2780                 6.2843                 6.2844
 IR Inten    --     40.1878                45.6022                46.3763

 - Thermochemistry -
 -------------------
 Temperature   298.150 Kelvin.  Pressure   1.00000 Atm.
 Atom     1 has atomic number  6 and mass  12.00000

 Molecular mass:   202.18504 amu.
 Principal axes and moments of inertia in atomic units:
                           1         2         3
     Eigenvalues --  3351.021404318.389087011.89856
           X            0.99997  -0.00749  -0.00368
           Y            0.00748   0.99997  -0.00171
           Z            0.00369   0.00168   0.99999
 This molecule is an asymmetric top.
 Rotational symmetry number  1.
 Warning -- assumption of classical behavior for rotation
           may cause significant error
 Rotational temperatures (Kelvin)      0.02585     0.02006     0.01235
 Rotational constants (GHZ):           0.53856     0.41792     0.25738
 Zero-point vibrational energy     977128.7 (Joules/Mol)
                                  233.53937 (Kcal/Mol)
 Warning -- explicit consideration of  24 degrees of freedom as
           vibrations may cause significant error
 Vibrational temperatures:     38.86    50.56    51.39    84.60   101.15
          (Kelvin)            121.73   131.81   154.89   187.19   228.61
                              258.53   278.80   338.38   348.66   355.41
                              370.03   383.67   400.09   407.54   447.11
                              544.48   644.30   680.24   697.42   894.90
                              927.75   933.66  1067.19  1080.83  1094.14
                             1140.60  1142.55  1166.61  1266.30  1276.17
                             1283.69  1306.50  1318.52  1323.89  1415.68
                             1455.35  1459.25  1523.44  1533.38  1537.74
                             1547.35  1550.66  1578.43  1603.47  1607.96
                             1617.56  1730.63  1767.58  1771.42  1808.61
                             1817.81  1819.99  1889.74  1891.26  1902.73
                             1929.08  1933.04  1935.06  1943.95  1951.52
                             2010.58  2023.03  2038.85  2044.15  2072.61
                             2072.80  2075.80  2135.09  2143.80  2150.81
                             2177.83  2179.20  2184.57  2190.25  2191.79
                             2195.53  2200.96  2201.17  2204.64  2213.90
                             2214.15  2217.23  4335.31  4337.99  4339.45
                             4350.68  4351.64  4354.60  4357.61  4360.83
                             4366.30  4373.36  4375.70  4379.03  4379.53
                             4386.64  4406.01  4410.03  4414.88  4421.93
                             4429.30  4437.52  4449.43  4467.15  4469.79
                             4469.86  4474.97  4476.33  4477.09

 Zero-point correction=                           0.372169 (Hartree/Particle)
 Thermal correction to Energy=                    0.390626
 Thermal correction to Enthalpy=                  0.391570
 Thermal correction to Gibbs Free Energy=         0.323856
 Sum of electronic and zero-point Energies=           -814.536488
 Sum of electronic and thermal Energies=              -814.518030
 Sum of electronic and thermal Enthalpies=            -814.517086
 Sum of electronic and thermal Free Energies=         -814.584800

                     E (Thermal)             CV                S
                      KCal/Mol        Cal/Mol-Kelvin    Cal/Mol-Kelvin
 Total                  245.122             66.221            142.516
 Electronic               0.000              0.000              0.000
 Translational            0.889              2.981             41.817
 Rotational               0.889              2.981             32.984
 Vibrational            243.344             60.259             67.716
 Vibration     1          0.593              1.984              6.038
 Vibration     2          0.594              1.982              5.516
 Vibration     3          0.594              1.982              5.484
 Vibration     4          0.596              1.974              4.497
 Vibration     5          0.598              1.968              4.145
 Vibration     6          0.601              1.960              3.781
 Vibration     7          0.602              1.955              3.625
 Vibration     8          0.606              1.943              3.311
 Vibration     9          0.612              1.923              2.944
 Vibration    10          0.621              1.893              2.563
 Vibration    11          0.629              1.867              2.332
 Vibration    12          0.635              1.849              2.191
 Vibration    13          0.655              1.787              1.839
 Vibration    14          0.659              1.775              1.786
 Vibration    15          0.661              1.768              1.752
 Vibration    16          0.667              1.751              1.681
 Vibration    17          0.672              1.734              1.618
 Vibration    18          0.679              1.714              1.545
 Vibration    19          0.682              1.705              1.514
 Vibration    20          0.700              1.653              1.358
 Vibration    21          0.749              1.516              1.045
 Vibration    22          0.807              1.366              0.802
 Vibration    23          0.830              1.310              0.730
 Vibration    24          0.841              1.284              0.697

 Optimization completed.
    -- Stationary point found.
 Normal termination of Gaussian 16 at Sun Aug 23 10:45:39 2020.
 Gaussian 16:  ES64L-G16RevA.03 25-Dec-2016

 ----------------------------------------------------------------------
 # TD(NStates=10, Root=1) B3LYP/6-31G* scf=qc volume pop=NPA density=cu
 rrent Geom=AllCheck Guess=Read
 ----------------------------------------------------------------------

 Structure from the checkpoint file:  "phosphine_2_conf33.chk"
 -------------------
 Title Card Required
 -------------------
 Charge =  0 Multiplicity = 1

                         Standard orientation:
 ---------------------------------------------------------------------
 Center     Atomic      Atomic             Coordinates (Angstroms)
 Number     Number       Type             X           Y           Z
 ---------------------------------------------------------------------
      1          6           0        4.097377   -2.501953   -0.728949
      2          6           0        3.143702   -1.344215   -0.417464
      3          6           0        2.238899   -1.623572    0.790525
      4          6           0        1.274025   -0.476338    1.138629
      5          1           0        0.829832   -0.643664    2.130013
      6          1           0        1.836566    0.463344    1.204378
      7         15           0       -0.112770   -0.210579   -0.112019
      8          6           0       -1.291673   -1.547508    0.508104
      9          1           0       -0.658174   -2.403082    0.775710
     10          1           0       -1.775157   -1.224178    1.440133
     11          6           0       -2.329042   -2.026042   -0.525492
     12          6           0       -3.411629   -1.009200   -0.924718
     13          6           0       -4.392523   -0.653944    0.199167
     14          6           0       -0.909828    1.332315    0.628174
     15          1           0       -1.993277    1.199363    0.529172
     16          1           0       -0.700478    1.379425    1.706845
     17          6           0       -0.515634    2.654316   -0.053671
     18          6           0        0.961406    3.046387    0.081452
     19          6           0        1.274457    4.406593   -0.550738
     20          1           0        4.737353   -2.272353   -1.588539
     21          1           0        3.543620   -3.419682   -0.963169
     22          1           0        4.751682   -2.720301    0.124472
     23          1           0        2.523179   -1.129324   -1.296593
     24          1           0        3.726029   -0.431702   -0.223818
     25          1           0        2.870652   -1.827711    1.667517
     26          1           0        1.673487   -2.550345    0.612119
     27          1           0       -2.825012   -2.925826   -0.131505
     28          1           0       -1.793982   -2.342639   -1.430383
     29          1           0       -3.979268   -1.425877   -1.767554
     30          1           0       -2.936962   -0.095995   -1.309603
     31          1           0       -4.902377   -1.550969    0.572578
     32          1           0       -5.161813    0.042585   -0.153658
     33          1           0       -3.891199   -0.183383    1.052932
     34          1           0       -1.133581    3.460601    0.368987
     35          1           0       -0.773842    2.598932   -1.120452
     36          1           0        1.589565    2.277432   -0.388168
     37          1           0        1.237421    3.064627    1.145954
     38          1           0        1.037204    4.408281   -1.621675
     39          1           0        2.334513    4.663754   -0.444386
     40          1           0        0.688337    5.206339   -0.081141
 ---------------------------------------------------------------------

 SCF Done:  E(RB3LYP) =  -814.908656435     a.u. after    1 cycles

 Excitation energies and oscillator strengths:

 Excited State   1:      Singlet-A      6.3985 eV  193.77 nm  f=0.1171  <S**2>=0.000
      57 -> 58         0.69657
 This state for optimization and/or second-order correction.
 Total Energy, E(TD-HF/TD-DFT) =  -814.673514583
 Copying the excited state density for this state as the 1-particle RhoCI density.

 Excited State   2:      Singlet-A      6.5672 eV  188.79 nm  f=0.1366  <S**2>=0.000
      57 -> 59         0.69337

 Excited State   3:      Singlet-A      7.1004 eV  174.62 nm  f=0.0040  <S**2>=0.000
      57 -> 60         0.70191

 Excited State   4:      Singlet-A      7.5859 eV  163.44 nm  f=0.0134  <S**2>=0.000
      57 -> 61         0.68878

 Excited State   5:      Singlet-A      7.7899 eV  159.16 nm  f=0.0147  <S**2>=0.000
      57 -> 62         0.67119
      57 -> 64        -0.17243

 Excited State   6:      Singlet-A      7.9464 eV  156.03 nm  f=0.0592  <S**2>=0.000
      57 -> 63         0.69174

 Excited State   7:      Singlet-A      8.1284 eV  152.53 nm  f=0.0032  <S**2>=0.000
      55 -> 58         0.39127
      55 -> 59        -0.26514
      56 -> 58         0.46072
      56 -> 59         0.22478

 Excited State   8:      Singlet-A      8.2813 eV  149.72 nm  f=0.0003  <S**2>=0.000
      57 -> 62         0.15991
      57 -> 64         0.66844
      57 -> 65         0.11155

 Excited State   9:      Singlet-A      8.3688 eV  148.15 nm  f=0.0137  <S**2>=0.000
      55 -> 58        -0.15209
      55 -> 59         0.11287
      56 -> 58         0.15891
      57 -> 65         0.63920

 Excited State  10:      Singlet-A      8.3942 eV  147.70 nm  f=0.0549  <S**2>=0.000
      55 -> 58         0.47659
      56 -> 58        -0.39203
      56 -> 59        -0.14496
      57 -> 65         0.23359

 The electronic state is 1-A.
 Alpha  occ. eigenvalues --  -77.06345 -10.18026 -10.17986 -10.17972 -10.17962
 Alpha  occ. eigenvalues --  -10.17861 -10.17861 -10.17773 -10.17734 -10.17351
 Alpha  occ. eigenvalues --  -10.17227 -10.17076 -10.16902  -6.53094  -4.69342
 Alpha  occ. eigenvalues --   -4.69341  -4.68862  -0.79846  -0.78730  -0.78670
 Alpha  occ. eigenvalues --   -0.73978  -0.71699  -0.71351  -0.65596  -0.62845
 Alpha  occ. eigenvalues --   -0.62246  -0.58462  -0.56659  -0.56313  -0.51419
 Alpha  occ. eigenvalues --   -0.46743  -0.45634  -0.45163  -0.44918  -0.43019
 Alpha  occ. eigenvalues --   -0.42588  -0.41579  -0.41450  -0.40298  -0.40031
 Alpha  occ. eigenvalues --   -0.38588  -0.38378  -0.37653  -0.36563  -0.36267
 Alpha  occ. eigenvalues --   -0.34149  -0.33620  -0.33448  -0.32895  -0.32704
 Alpha  occ. eigenvalues --   -0.32149  -0.32056  -0.31849  -0.31759  -0.28832
 Alpha  occ. eigenvalues --   -0.28739  -0.21301
 Alpha virt. eigenvalues --    0.05102   0.05734   0.07812   0.09571   0.10506
 Alpha virt. eigenvalues --    0.10971   0.11765   0.12177   0.13389   0.13560
 Alpha virt. eigenvalues --    0.13948   0.14610   0.14922   0.15992   0.16743

 Mulliken charges:
               1
     1  C   -0.440426
     2  C   -0.234912
     3  C   -0.225876
     4  C   -0.443027
     5  H    0.170968
     6  H    0.158364
     7  P    0.329735
     8  C   -0.421888
     9  H    0.183001
    10  H    0.160860
    11  C   -0.261185
    12  C   -0.232855
    13  C   -0.448823
    14  C   -0.423491
    15  H    0.151327
    16  H    0.131451
    17  C   -0.224580
    18  C   -0.258091
    19  C   -0.441952
    20  H    0.140492
    21  H    0.139675
    22  H    0.139273
    23  H    0.133604
    24  H    0.116293
    25  H    0.115248
    26  H    0.117851
    27  H    0.128878
    28  H    0.146064
    29  H    0.127047
    30  H    0.111993
    31  H    0.138505
    32  H    0.145502
    33  H    0.141821
    34  H    0.127827
    35  H    0.107829
    36  H    0.137656
    37  H    0.128934
    38  H    0.144174
    39  H    0.141116
    40  H    0.141619
 Sum of Mulliken charges =  -0.00000

 Dipole moment (field-independent basis, Debye):
    X=             -0.2216    Y=             -0.4193    Z=              1.2433  Tot=              1.3307
 Quadrupole moment (field-independent basis, Debye-Ang):
   XX=            -97.0151   YY=            -95.8602   ZZ=            -94.8318
   XY=              2.3077   XZ=             -0.4682   YZ=             -0.6066

 Summary of Natural Population Analysis:

                                       Natural Population
                Natural  -----------------------------------------------
    Atom  No    Charge         Core      Valence    Rydberg      Total
 -----------------------------------------------------------------------
      C    1   -0.67355      1.99946     4.66636    0.00773     6.67355
      C    2   -0.45715      1.99935     4.44641    0.01140     6.45715
      C    3   -0.46357      1.99932     4.44981    0.01444     6.46357
      C    4   -0.79954      1.99931     4.77691    0.02332     6.79954
      H    5    0.26619      0.00000     0.73176    0.00205     0.73381
      H    6    0.24186      0.00000     0.75380    0.00434     0.75814
      P    7    0.97494      9.99767     3.91444    0.11295    14.02506
      C    8   -0.74725      1.99929     4.73246    0.01550     6.74725
      H    9    0.25951      0.00000     0.73868    0.00181     0.74049
      H   10    0.24402      0.00000     0.74912    0.00686     0.75598
      C   11   -0.46163      1.99932     4.44805    0.01426     6.46163
      C   12   -0.46177      1.99934     4.45102    0.01141     6.46177
      C   13   -0.68040      1.99946     4.67214    0.00879     6.68040
      C   14   -0.84358      1.99930     4.81894    0.02534     6.84358
      H   15    0.24513      0.00000     0.74929    0.00558     0.75487
      H   16    0.23234      0.00000     0.76219    0.00546     0.76766
      C   17   -0.46556      1.99933     4.45282    0.01341     6.46556
      C   18   -0.45860      1.99935     4.44783    0.01142     6.45860
      C   19   -0.67229      1.99946     4.66507    0.00775     6.67229
      H   20    0.23090      0.00000     0.76799    0.00111     0.76910
      H   21    0.22263      0.00000     0.77501    0.00237     0.77737
      H   22    0.22332      0.00000     0.77516    0.00151     0.77668
      H   23    0.22377      0.00000     0.77154    0.00469     0.77623
      H   24    0.21725      0.00000     0.77746    0.00529     0.78275
      H   25    0.22589      0.00000     0.76774    0.00637     0.77411
      H   26    0.21795      0.00000     0.77588    0.00618     0.78205
      H   27    0.23094      0.00000     0.76587    0.00319     0.76906
      H   28    0.23883      0.00000     0.75821    0.00296     0.76117
      H   29    0.23231      0.00000     0.76549    0.00220     0.76769
      H   30    0.20775      0.00000     0.77901    0.01324     0.79225
      H   31    0.22335      0.00000     0.77535    0.00130     0.77665
      H   32    0.23487      0.00000     0.76436    0.00078     0.76513
      H   33    0.21799      0.00000     0.78105    0.00096     0.78201
      H   34    0.23350      0.00000     0.76384    0.00267     0.76650
      H   35    0.21203      0.00000     0.77666    0.01131     0.78797
      H   36    0.22160      0.00000     0.77678    0.00162     0.77840
      H   37    0.22447      0.00000     0.77344    0.00209     0.77553
      H   38    0.22574      0.00000     0.77284    0.00143     0.77426
      H   39    0.23126      0.00000     0.76788    0.00086     0.76874
      H   40    0.22454      0.00000     0.77432    0.00114     0.77546
 =======================================================================
   * Total *   -0.00000     33.98996    79.63297    0.37707   114.00000

 Normal termination of Gaussian 16 at Sun Aug 23 10:54:21 2020.
