 Gaussian 16, Revision A.03,

 ---------------------------------
 # opt=CalcAll B3LYP/6-31G* scf=qc
 ---------------------------------

 -------------------
 Title Card Required
 -------------------
 Symbolic Z-matrix:
 Charge =  0 Multiplicity = 1

 SCF Done:  E(RB3LYP) =  -1036.29105480     a.u. after    8 cycles
 SCF Done:  E(RB3LYP) =  -1036.29755452     a.u. after   15 cycles
 SCF Done:  E(RB3LYP) =  -1036.29818727     a.u. after   13 cycles
 SCF Done:  E(RB3LYP) =  -1036.29822587     a.u. after   11 cycles
 SCF Done:  E(RB3LYP) =  -1036.29823316     a.u. after    5 cycles
 SCF Done:  E(RB3LYP) =  -1036.29823128     a.u. after    3 cycles
 SCF Done:  E(RB3LYP) =  -1036.29823216     a.u. after    3 cycles
 SCF Done:  E(RB3LYP) =  -1036.29823136     a.u. after    4 cycles
 SCF Done:  E(RB3LYP) =  -1036.29823531     a.u. after    5 cycles
 SCF Done:  E(RB3LYP) =  -1036.29823941     a.u. after    3 cycles
 SCF Done:  E(RB3LYP) =  -1036.29823519     a.u. after    2 cycles
 SCF Done:  E(RB3LYP) =  -1036.29823158     a.u. after    3 cycles
 SCF Done:  E(RB3LYP) =  -1036.29823903     a.u. after    2 cycles
 SCF Done:  E(RB3LYP) =  -1036.29823951     a.u. after    2 cycles
 SCF Done:  E(RB3LYP) =  -1036.29823778     a.u. after    2 cycles
 SCF Done:  E(RB3LYP) =  -1036.29823423     a.u. after    3 cycles
 SCF Done:  E(RB3LYP) =  -1036.29823584     a.u. after    2 cycles
 SCF Done:  E(RB3LYP) =  -1036.29823435     a.u. after    2 cycles
 Optimization completed.
    -- Stationary point found.
 Normal termination of Gaussian 16 at Sun Aug 23 08:48:43 2020.

 ----------------------------------------------------------------------
 # freq B3LYP/6-31G* scf=qc volume NMR pop=NPA density=current Geom=All
 Check Guess=Read
 ----------------------------------------------------------------------

 Structure from the checkpoint file:  "phosphine_1_conf52.chk"
 -------------------
 Title Card Required
 -------------------
 Charge =  0 Multiplicity = 1

 SCF Done:  E(RB3LYP) =  -1036.29823435     a.u. after    1 cycles

      1  C    Isotropic =    68.1655   Anisotropy =   167.3309

      2  C    Isotropic =    68.7241   Anisotropy =   164.1414

      3  C    Isotropic =    61.0156   Anisotropy =   164.1145

      4  C    Isotropic =    56.0871   Anisotropy =   179.4460

      5  C    Isotropic =    62.5772   Anisotropy =   174.0286

      6  C    Isotropic =    68.6787   Anisotropy =   163.8795

      7  P    Isotropic =   361.6367   Anisotropy =    39.8913

      8  C    Isotropic =    56.1592   Anisotropy =   179.4591

      9  C    Isotropic =    62.5591   Anisotropy =   174.1305

     10  C    Isotropic =    68.6767   Anisotropy =   163.8985

     11  C    Isotropic =    68.1540   Anisotropy =   167.3158

     12  C    Isotropic =    68.7276   Anisotropy =   164.1098

     13  C    Isotropic =    60.9883   Anisotropy =   164.1163

     14  C    Isotropic =    56.1248   Anisotropy =   179.4271

     15  C    Isotropic =    61.0355   Anisotropy =   164.1669

     16  C    Isotropic =    68.7286   Anisotropy =   164.1187

     17  C    Isotropic =    68.1631   Anisotropy =   167.2969

     18  C    Isotropic =    68.6795   Anisotropy =   163.8935

     19  C    Isotropic =    62.6197   Anisotropy =   174.0572

     20  H    Isotropic =    25.0207   Anisotropy =     3.6406

     21  H    Isotropic =    24.9262   Anisotropy =     4.5912

     22  H    Isotropic =    24.6133   Anisotropy =     9.2534

     23  H    Isotropic =    25.4017   Anisotropy =    12.2295

     24  H    Isotropic =    25.0483   Anisotropy =     6.0873

     25  H    Isotropic =    25.3929   Anisotropy =    12.2281

     26  H    Isotropic =    25.0467   Anisotropy =     6.0870

     27  H    Isotropic =    25.0221   Anisotropy =     3.6364

     28  H    Isotropic =    24.9288   Anisotropy =     4.5822

     29  H    Isotropic =    24.6087   Anisotropy =     9.2464

     30  H    Isotropic =    24.6133   Anisotropy =     9.2599

     31  H    Isotropic =    24.9277   Anisotropy =     4.5881

     32  H    Isotropic =    25.0223   Anisotropy =     3.6389

     33  H    Isotropic =    25.0480   Anisotropy =     6.0877

     34  H    Isotropic =    25.4024   Anisotropy =    12.2383

  Exact polarizability: 224.223  -0.082 224.018   0.084   0.056 165.067
 Approx polarizability: 331.055  -0.193 330.686   0.199   0.129 308.083

                      1                      2                      3
                      A                      A                      A
 Frequencies --     22.8030                24.6280                38.4805
 Red. masses --      3.7962                 3.8008                 3.6897
 Frc consts  --      0.0012                 0.0014                 0.0032
 IR Inten    --      0.2820                 0.2814                 0.0022

                      4                      5                      6
                      A                      A                      A
 Frequencies --     53.4040                53.4434                70.6964
 Red. masses --      5.2555                 5.2469                 5.1677
 Frc consts  --      0.0088                 0.0088                 0.0152
 IR Inten    --      0.0874                 0.0845                 0.3097

                      7                      8                      9
                      A                      A                      A
 Frequencies --    181.7191               202.5651               202.6775
 Red. masses --      4.5613                 4.6382                 4.6423
 Frc consts  --      0.0887                 0.1121                 0.1124
 IR Inten    --      0.3522                 1.1275                 1.1318

                     10                     11                     12
                      A                      A                      A
 Frequencies --    245.5527               259.7441               260.1888
 Red. masses --      5.7389                 4.7210                 4.7252
 Frc consts  --      0.2039                 0.1877                 0.1885
 IR Inten    --      0.4839                 0.2277                 0.2268

                     13                     14                     15
                      A                      A                      A
 Frequencies --    408.8322               408.9267               412.3920
 Red. masses --      3.0800                 3.0809                 3.6204
 Frc consts  --      0.3033                 0.3035                 0.3628
 IR Inten    --      1.9641                 1.9803                 0.1657

                     16                     17                     18
                      A                      A                      A
 Frequencies --    417.0451               429.3882               429.6050
 Red. masses --      4.5733                 7.3115                 7.3223
 Frc consts  --      0.4686                 0.7942                 0.7962
 IR Inten    --      0.5584                 7.6798                 7.7553

                     19                     20                     21
                      A                      A                      A
 Frequencies --    509.4422               509.6687               516.4009
 Red. masses --      4.2458                 4.2455                 4.5901
 Frc consts  --      0.6492                 0.6498                 0.7212
 IR Inten    --     26.0644                26.0666                11.9534

                     22                     23                     24
                      A                      A                      A
 Frequencies --    632.7431               632.7592               633.3794
 Red. masses --      6.4272                 6.4273                 6.4370
 Frc consts  --      1.5161                 1.5162                 1.5215
 IR Inten    --      0.1809                 0.1826                 0.0163

                     25                     26                     27
                      A                      A                      A
 Frequencies --    691.8343               705.1439               705.1800
 Red. masses --      6.5803                 5.7238                 5.7837
 Frc consts  --      1.8557                 1.6768                 1.6946
 IR Inten    --      0.7878                 1.2053                 1.0774

                     28                     29                     30
                      A                      A                      A
 Frequencies --    712.2890               712.4411               713.3212
 Red. masses --      2.2011                 2.1900                 2.1354
 Frc consts  --      0.6580                 0.6549                 0.6402
 IR Inten    --     26.3908                26.4104                16.5851

                     31                     32                     33
                      A                      A                      A
 Frequencies --    761.3810               762.8727               762.8897
 Red. masses --      1.6148                 1.6495                 1.6486
 Frc consts  --      0.5515                 0.5656                 0.5653
 IR Inten    --     19.2116                24.9871                24.8529

                     34                     35                     36
                      A                      A                      A
 Frequencies --    866.2526               866.3500               868.8199
 Red. masses --      1.2477                 1.2476                 1.2462
 Frc consts  --      0.5516                 0.5517                 0.5542
 IR Inten    --      0.2251                 0.2162                 0.1319

                     37                     38                     39
                      A                      A                      A
 Frequencies --    932.8889               933.0541               934.2819
 Red. masses --      1.3441                 1.3438                 1.3384
 Frc consts  --      0.6892                 0.6893                 0.6883
 IR Inten    --      1.2581                 1.2611                 0.0404

                     40                     41                     42
                      A                      A                      A
 Frequencies --    975.8821               975.9811               977.7099
 Red. masses --      1.3612                 1.3609                 1.3554
 Frc consts  --      0.7638                 0.7638                 0.7634
 IR Inten    --      0.0157                 0.0155                 0.1391

                     43                     44                     45
                      A                      A                      A
 Frequencies --   1000.3767              1000.4173              1001.1365
 Red. masses --      1.2542                 1.2540                 1.2525
 Frc consts  --      0.7395                 0.7395                 0.7396
 IR Inten    --      0.0753                 0.0814                 0.0007

                     46                     47                     48
                      A                      A                      A
 Frequencies --   1015.3593              1015.4000              1015.7548
 Red. masses --      6.3129                 6.3122                 6.3080
 Frc consts  --      3.8346                 3.8345                 3.8346
 IR Inten    --      4.3462                 4.3684                 0.0642

                     49                     50                     51
                      A                      A                      A
 Frequencies --   1052.7133              1052.7623              1052.9184
 Red. masses --      3.3101                 3.3179                 3.2521
 Frc consts  --      2.1613                 2.1666                 2.1242
 IR Inten    --      2.0895                 2.0903                 0.0430

                     52                     53                     54
                      A                      A                      A
 Frequencies --   1107.6988              1108.0870              1109.4760
 Red. masses --      1.9128                 1.8836                 1.6541
 Frc consts  --      1.3828                 1.3627                 1.1997
 IR Inten    --      4.7520                 4.2562                 2.9361

                     55                     56                     57
                      A                      A                      A
 Frequencies --   1110.7475              1110.8537              1115.9413
 Red. masses --      2.1565                 2.1842                 2.6127
 Frc consts  --      1.5676                 1.5880                 1.9170
 IR Inten    --      9.0347                 9.2737                 1.1624

                     58                     59                     60
                      A                      A                      A
 Frequencies --   1193.4983              1193.9219              1193.9484
 Red. masses --      1.1034                 1.1000                 1.1000
 Frc consts  --      0.9260                 0.9239                 0.9239
 IR Inten    --      0.0011                 0.1304                 0.1273

                     61                     62                     63
                      A                      A                      A
 Frequencies --   1219.1219              1219.5014              1220.7491
 Red. masses --      1.1475                 1.1478                 1.1472
 Frc consts  --      1.0049                 1.0057                 1.0073
 IR Inten    --      5.9815                 6.0608                 0.4063

                     64                     65                     66
                      A                      A                      A
 Frequencies --   1325.0012              1328.6213              1328.9161
 Red. masses --      3.4819                 3.4695                 3.5199
 Frc consts  --      3.6016                 3.6084                 3.6624
 IR Inten    --      2.6436                 2.4285                 2.4518

                     67                     68                     69
                      A                      A                      A
 Frequencies --   1364.9848              1365.3486              1365.5288
 Red. masses --      1.6640                 1.6485                 1.6442
 Frc consts  --      1.8266                 1.8106                 1.8063
 IR Inten    --      0.4054                 0.6007                 2.3857

                     70                     71                     72
                      A                      A                      A
 Frequencies --   1480.5302              1480.9642              1481.0574
 Red. masses --      2.1107                 2.1152                 2.1164
 Frc consts  --      2.7259                 2.7333                 2.7352
 IR Inten    --     16.6634                 6.6007                 6.6064

                     73                     74                     75
                      A                      A                      A
 Frequencies --   1531.0330              1531.5370              1531.6447
 Red. masses --      2.0158                 1.9991                 1.9976
 Frc consts  --      2.7840                 2.7628                 2.7610
 IR Inten    --      2.0098                10.1285                10.1676

                     76                     77                     78
                      A                      A                      A
 Frequencies --   1630.1756              1630.4372              1630.4820
 Red. masses --      5.1023                 5.1133                 5.1129
 Frc consts  --      7.9889                 8.0086                 8.0085
 IR Inten    --      0.3974                 0.0433                 0.0454

                     79                     80                     81
                      A                      A                      A
 Frequencies --   1646.1658              1646.1819              1647.9631
 Red. masses --      5.2722                 5.2696                 5.2830
 Frc consts  --      8.4176                 8.4137                 8.4534
 IR Inten    --      3.4876                 3.5381                 0.3211

                     82                     83                     84
                      A                      A                      A
 Frequencies --   3176.0749              3176.1316              3176.1670
 Red. masses --      1.0854                 1.0853                 1.0853
 Frc consts  --      6.4506                 6.4508                 6.4509
 IR Inten    --      2.0839                 2.0066                 1.8679

                     85                     86                     87
                      A                      A                      A
 Frequencies --   3182.6525              3182.7090              3182.7730
 Red. masses --      1.0875                 1.0875                 1.0876
 Frc consts  --      6.4902                 6.4904                 6.4913
 IR Inten    --      0.7286                 0.7848                 0.1927

                     88                     89                     90
                      A                      A                      A
 Frequencies --   3192.8456              3192.8803              3192.9983
 Red. masses --      1.0916                 1.0917                 1.0917
 Frc consts  --      6.5568                 6.5569                 6.5580
 IR Inten    --     10.9706                10.7796                46.7055

                     91                     92                     93
                      A                      A                      A
 Frequencies --   3203.9381              3203.9858              3204.3590
 Red. masses --      1.0942                 1.0942                 1.0943
 Frc consts  --      6.6176                 6.6180                 6.6202
 IR Inten    --     41.7407                42.0690                 4.5865

                     94                     95                     96
                      A                      A                      A
 Frequencies --   3210.1524              3210.2470              3211.1125
 Red. masses --      1.0956                 1.0955                 1.0955
 Frc consts  --      6.6521                 6.6518                 6.6555
 IR Inten    --     19.5895                19.0603                16.3770

 - Thermochemistry -
 -------------------
 Temperature   298.150 Kelvin.  Pressure   1.00000 Atm.
 Atom     1 has atomic number  6 and mass  12.00000

 Molecular mass:   262.09114 amu.
 Principal axes and moments of inertia in atomic units:
                           1         2         3
     Eigenvalues --  5160.819045165.004488680.17821
           X            0.99978  -0.02116   0.00002
           Y            0.02116   0.99978   0.00002
           Z           -0.00002  -0.00002   1.00000
 This molecule is an asymmetric top.
 Rotational symmetry number  1.
 Warning -- assumption of classical behavior for rotation
           may cause significant error
 Rotational temperatures (Kelvin)      0.01678     0.01677     0.00998
 Rotational constants (GHZ):           0.34970     0.34942     0.20792
 Zero-point vibrational energy     719978.7 (Joules/Mol)
                                  172.07904 (Kcal/Mol)
 Warning -- explicit consideration of  21 degrees of freedom as
           vibrations may cause significant error
 Vibrational temperatures:     32.81    35.43    55.36    76.84    76.89
          (Kelvin)            101.72   261.45   291.45   291.61   353.30
                              373.71   374.35   588.22   588.35   593.34
                              600.03   617.79   618.11   732.97   733.30
                              742.99   910.38   910.40   911.29   995.40
                             1014.54  1014.60  1024.83  1025.04  1026.31
                             1095.46  1097.60  1097.63  1246.34  1246.48
                             1250.04  1342.22  1342.46  1344.22  1404.08
                             1404.22  1406.71  1439.32  1439.38  1440.41
                             1460.88  1460.93  1461.44  1514.62  1514.69
                             1514.91  1593.73  1594.29  1596.29  1598.12
                             1598.27  1605.59  1717.18  1717.79  1717.83
                             1754.04  1754.59  1756.39  1906.38  1911.59
                             1912.01  1963.91  1964.43  1964.69  2130.15
                             2130.78  2130.91  2202.81  2203.54  2203.70
                             2345.46  2345.84  2345.90  2368.47  2368.49
                             2371.05  4569.66  4569.74  4569.80  4579.13
                             4579.21  4579.30  4593.79  4593.84  4594.01
                             4609.75  4609.82  4610.36  4618.69  4618.83
                             4620.07

 Zero-point correction=                           0.274225 (Hartree/Particle)
 Thermal correction to Energy=                    0.290143
 Thermal correction to Enthalpy=                  0.291087
 Thermal correction to Gibbs Free Energy=         0.227799
 Sum of electronic and zero-point Energies=          -1036.024009
 Sum of electronic and thermal Energies=             -1036.008091
 Sum of electronic and thermal Enthalpies=           -1036.007147
 Sum of electronic and thermal Free Energies=        -1036.070435

                     E (Thermal)             CV                S
                      KCal/Mol        Cal/Mol-Kelvin    Cal/Mol-Kelvin
 Total                  182.068             62.535            133.201
 Electronic               0.000              0.000              0.000
 Translational            0.889              2.981             42.590
 Rotational               0.889              2.981             33.803
 Vibrational            180.290             56.573             56.808
 Vibration     1          0.593              1.985              6.374
 Vibration     2          0.593              1.985              6.221
 Vibration     3          0.594              1.982              5.336
 Vibration     4          0.596              1.976              4.687
 Vibration     5          0.596              1.976              4.686
 Vibration     6          0.598              1.968              4.134
 Vibration     7          0.630              1.865              2.311
 Vibration     8          0.639              1.836              2.110
 Vibration     9          0.639              1.836              2.109
 Vibration    10          0.660              1.770              1.762
 Vibration    11          0.668              1.746              1.663
 Vibration    12          0.668              1.745              1.661
 Vibration    13          0.773              1.451              0.931
 Vibration    14          0.773              1.451              0.930
 Vibration    15          0.776              1.443              0.918
 Vibration    16          0.780              1.433              0.902
 Vibration    17          0.791              1.406              0.861
 Vibration    18          0.791              1.406              0.860
 Vibration    19          0.865              1.229              0.635
 Vibration    20          0.865              1.229              0.634
 Vibration    21          0.871              1.214              0.618

                           ! Non-Optimized Parameters !
 Normal termination of Gaussian 16 at Sun Aug 23 09:00:03 2020.
 Gaussian 16:  ES64L-G16RevA.03 25-Dec-2016

 ----------------------------------------------------------------------
 # TD(NStates=10, Root=1) B3LYP/6-31G* scf=qc volume pop=NPA density=cu
 rrent Geom=AllCheck Guess=Read
 ----------------------------------------------------------------------

 Structure from the checkpoint file:  "phosphine_1_conf53.chk"
 -------------------
 Title Card Required
 -------------------
 Charge =  0 Multiplicity = 1

                         Standard orientation:
 ---------------------------------------------------------------------
 Center     Atomic      Atomic             Coordinates (Angstroms)
 Number     Number       Type             X           Y           Z
 ---------------------------------------------------------------------
      1          6           0        0.798328   -4.204463    0.652371
      2          6           0        0.033338   -4.047930   -0.505427
      3          6           0       -0.182988   -2.774807   -1.032195
      4          6           0        0.344196   -1.634397   -0.402729
      5          6           0        1.113396   -1.805661    0.758356
      6          6           0        1.339909   -3.081412    1.279677
      7         15           0       -0.000309    0.000445   -1.206719
      8          6           0       -1.588268    0.519334   -0.402465
      9          6           0       -2.118665   -0.058349    0.761198
     10          6           0       -3.336981    0.382734    1.282463
     11          6           0       -4.041538    1.409796    0.652497
     12          6           0       -3.525995    1.991208   -0.507826
     13          6           0       -2.314983    1.542602   -1.034485
     14          6           0        1.243772    1.115887   -0.403063
     15          6           0        2.495878    1.226570   -1.031353
     16          6           0        3.490858    2.050077   -0.505123
     17          6           0        3.243653    2.793595    0.650864
     18          6           0        1.999419    2.704140    1.276881
     19          6           0        1.007249    1.870389    0.756187
     20          1           0        0.976632   -5.196446    1.059148
     21          1           0       -0.385870   -4.917819   -1.004510
     22          1           0       -0.763510   -2.662718   -1.945187
     23          1           0        1.540763   -0.940034    1.255460
     24          1           0        1.940385   -3.196352    2.178663
     25          1           0       -1.580556   -0.858649    1.260250
     26          1           0       -3.734877   -0.077628    2.183409
     27          1           0       -4.990010    1.750810    1.059197
     28          1           0       -4.071897    2.786430   -1.008963
     29          1           0       -1.929537    1.986926   -1.949430
     30          1           0        2.689342    0.665688   -1.943008
     31          1           0        4.454485    2.119545   -1.003244
     32          1           0        4.014032    3.443749    1.057196
     33          1           0        1.798466    3.283806    2.174414
     34          1           0        0.043318    1.810135    1.252418
 ---------------------------------------------------------------------

 SCF Done:  E(RB3LYP) =  -1036.29823435     a.u. after    1 cycles

 Excitation energies and oscillator strengths:

 Excited State   1:      Singlet-A      4.5092 eV  274.96 nm  f=0.1273  <S**2>=0.000
      69 -> 70         0.69709
 This state for optimization and/or second-order correction.
 Total Energy, E(TD-HF/TD-DFT) =  -1036.13252319
 Copying the excited state density for this state as the 1-particle RhoCI density.

 Excited State   2:      Singlet-A      4.5119 eV  274.79 nm  f=0.1284  <S**2>=0.000
      69 -> 71         0.69705

 Excited State   3:      Singlet-A      4.7570 eV  260.63 nm  f=0.0022  <S**2>=0.000
      67 -> 70         0.12152
      68 -> 71        -0.12209
      69 -> 72         0.67466

 Excited State   4:      Singlet-A      5.0576 eV  245.15 nm  f=0.0002  <S**2>=0.000
      66 -> 70        -0.16804
      67 -> 70        -0.13161
      68 -> 71        -0.13112
      69 -> 74         0.63007

 Excited State   5:      Singlet-A      5.0586 eV  245.10 nm  f=0.0002  <S**2>=0.000
      66 -> 71        -0.16880
      67 -> 71         0.13247
      68 -> 70        -0.13228
      69 -> 75         0.62946

 Excited State   6:      Singlet-A      5.1509 eV  240.71 nm  f=0.0085  <S**2>=0.000
      69 -> 73         0.67908

 Excited State   7:      Singlet-A      5.4275 eV  228.44 nm  f=0.0147  <S**2>=0.000
      63 -> 72        -0.16609
      64 -> 74         0.14094
      65 -> 75         0.13820
      67 -> 70         0.42174
      68 -> 71        -0.41390
      69 -> 72        -0.16514

 Excited State   8:      Singlet-A      5.5138 eV  224.86 nm  f=0.0005  <S**2>=0.000
      63 -> 74         0.14373
      64 -> 72        -0.21905
      64 -> 75         0.10344
      65 -> 72        -0.17861
      65 -> 74         0.10164
      66 -> 70         0.22656
      67 -> 70         0.26440
      68 -> 71         0.27545
      68 -> 72         0.16340
      69 -> 74         0.28685

 Excited State   9:      Singlet-A      5.5151 eV  224.81 nm  f=0.0004  <S**2>=0.000
      63 -> 75         0.14427
      64 -> 72         0.17904
      64 -> 74         0.10161
      65 -> 72        -0.21917
      65 -> 75        -0.10185
      66 -> 71         0.22499
      67 -> 71        -0.26875
      67 -> 72         0.16402
      68 -> 70         0.27417
      69 -> 75         0.28798

 Excited State  10:      Singlet-A      5.6181 eV  220.69 nm  f=0.0009  <S**2>=0.000
      67 -> 71         0.46989
      68 -> 70         0.47978

 The electronic state is 1-A.
 Alpha  occ. eigenvalues --  -77.08113 -10.19448 -10.19447 -10.19446 -10.19149
 Alpha  occ. eigenvalues --  -10.19145 -10.19144 -10.19119 -10.19116 -10.19116
 Alpha  occ. eigenvalues --  -10.19033 -10.19030 -10.19028 -10.19009 -10.19006
 Alpha  occ. eigenvalues --  -10.19006 -10.18964 -10.18961 -10.18959  -6.54844
 Alpha  occ. eigenvalues --   -4.71103  -4.71103  -4.70601  -0.85560  -0.84847
 Alpha  occ. eigenvalues --   -0.84844  -0.76669  -0.74366  -0.74365  -0.74329
 Alpha  occ. eigenvalues --   -0.73822  -0.73820  -0.64436  -0.60336  -0.60308
 Alpha  occ. eigenvalues --   -0.60306  -0.59207  -0.59206  -0.55448  -0.51436
 Alpha  occ. eigenvalues --   -0.51434  -0.49296  -0.45440  -0.45439  -0.44774
 Alpha  occ. eigenvalues --   -0.44344  -0.44344  -0.44068  -0.41946  -0.41869
 Alpha  occ. eigenvalues --   -0.41867  -0.40379  -0.40376  -0.36844  -0.36353
 Alpha  occ. eigenvalues --   -0.36349  -0.35898  -0.34252  -0.34251  -0.34224
 Alpha  occ. eigenvalues --   -0.31885  -0.31883  -0.26777  -0.25450  -0.25444
 Alpha  occ. eigenvalues --   -0.25243  -0.24704  -0.24703  -0.21145
 Alpha virt. eigenvalues --   -0.01883  -0.01876  -0.00830   0.00173   0.00426
 Alpha virt. eigenvalues --    0.00432   0.06877   0.06890   0.09493   0.11038
 Alpha virt. eigenvalues --    0.11040   0.13903   0.14528   0.14530   0.15164

 Mulliken charges:
               1
     1  C   -0.138154
     2  C   -0.124210
     3  C   -0.153152
     4  C   -0.092382
     5  C   -0.163198
     6  C   -0.115684
     7  P    0.450591
     8  C   -0.134362
     9  C   -0.173736
    10  C   -0.119835
    11  C   -0.169676
    12  C   -0.122102
    13  C   -0.173736
    14  C   -0.094426
    15  C   -0.165312
    16  C   -0.116755
    17  C   -0.128356
    18  C   -0.122526
    19  C   -0.148696
    20  H    0.133129
    21  H    0.133824
    22  H    0.140518
    23  H    0.146918
    24  H    0.136186
    25  H    0.126983
    26  H    0.115919
    27  H    0.106211
    28  H    0.112121
    29  H    0.111797
    30  H    0.141784
    31  H    0.138593
    32  H    0.141210
    33  H    0.143574
    34  H    0.176938
 Sum of Mulliken charges =  -0.00000

 Dipole moment (field-independent basis, Debye):
    X=              3.7613    Y=             -0.3615    Z=             -0.1969  Tot=              3.7838
 Quadrupole moment (field-independent basis, Debye-Ang):
   XX=           -117.9415   YY=           -109.1235   ZZ=           -110.6654
   XY=              5.4918   XZ=              1.1795   YZ=              0.6933

 Summary of Natural Population Analysis:

                                       Natural Population
                Natural  -----------------------------------------------
    Atom  No    Charge         Core      Valence    Rydberg      Total
 -----------------------------------------------------------------------
      C    1   -0.23300      1.99909     4.21908    0.01483     6.23300
      C    2   -0.24537      1.99910     4.23150    0.01478     6.24537
      C    3   -0.20066      1.99901     4.18631    0.01534     6.20066
      C    4   -0.40508      1.99888     4.38215    0.02405     6.40508
      C    5   -0.23951      1.99899     4.22351    0.01700     6.23951
      C    6   -0.22315      1.99909     4.20997    0.01409     6.22315
      P    7    1.24217      9.99750     3.71009    0.05024    13.75783
      C    8   -0.48972      1.99886     4.46519    0.02568     6.48972
      C    9   -0.25944      1.99899     4.24239    0.01806     6.25944
      C   10   -0.23204      1.99909     4.21829    0.01465     6.23204
      C   11   -0.29963      1.99910     4.28378    0.01676     6.29963
      C   12   -0.24356      1.99910     4.22947    0.01500     6.24356
      C   13   -0.23706      1.99901     4.22165    0.01640     6.23706
      C   14   -0.40179      1.99890     4.37711    0.02578     6.40179
      C   15   -0.21655      1.99902     4.20204    0.01549     6.21655
      C   16   -0.23168      1.99910     4.21840    0.01419     6.23168
      C   17   -0.21195      1.99909     4.19862    0.01424     6.21195
      C   18   -0.23486      1.99909     4.22150    0.01427     6.23486
      C   19   -0.20397      1.99900     4.18865    0.01632     6.20397
      H   20    0.23653      0.00000     0.76260    0.00087     0.76347
      H   21    0.23937      0.00000     0.75976    0.00087     0.76063
      H   22    0.23862      0.00000     0.76014    0.00124     0.76138
      H   23    0.24546      0.00000     0.75327    0.00127     0.75454
      H   24    0.24063      0.00000     0.75849    0.00088     0.75937
      H   25    0.23394      0.00000     0.76452    0.00154     0.76606
      H   26    0.23134      0.00000     0.76778    0.00088     0.76866
      H   27    0.22482      0.00000     0.77429    0.00090     0.77518
      H   28    0.22882      0.00000     0.77026    0.00092     0.77118
      H   29    0.22274      0.00000     0.77629    0.00097     0.77726
      H   30    0.23781      0.00000     0.76107    0.00112     0.76219
      H   31    0.24089      0.00000     0.75818    0.00093     0.75911
      H   32    0.23991      0.00000     0.75924    0.00085     0.76009
      H   33    0.24420      0.00000     0.75493    0.00087     0.75580
      H   34    0.26179      0.00000     0.73689    0.00132     0.73821
 =======================================================================
   * Total *    0.00000     45.98001    91.64741    0.37259   138.00000

 Normal termination of Gaussian 16 at Sun Aug 23 09:12:59 2020.
