 Gaussian 16, Revision A.03,

 ---------------------------------
 # opt=CalcAll B3LYP/6-31G* scf=qc
 ---------------------------------

 -------------------
 Title Card Required
 -------------------
 Symbolic Z-matrix:
 Charge =  0 Multiplicity = 1

 SCF Done:  E(RB3LYP) =  -2415.05091744     a.u. after    8 cycles
 SCF Done:  E(RB3LYP) =  -2415.05832741     a.u. after   17 cycles
 SCF Done:  E(RB3LYP) =  -2415.06627117     a.u. after   15 cycles
 SCF Done:  E(RB3LYP) =  -2415.05705125     a.u. after   19 cycles
 SCF Done:  E(RB3LYP) =  -2415.07617710     a.u. after   12 cycles
 SCF Done:  E(RB3LYP) =  -2415.08205796     a.u. after   17 cycles
 SCF Done:  E(RB3LYP) =  -2415.08493939     a.u. after   17 cycles
 SCF Done:  E(RB3LYP) =  -2415.08579655     a.u. after   15 cycles
 SCF Done:  E(RB3LYP) =  -2415.08620362     a.u. after   13 cycles
 SCF Done:  E(RB3LYP) =  -2415.08624437     a.u. after    9 cycles
 SCF Done:  E(RB3LYP) =  -2415.08624389     a.u. after    3 cycles
 SCF Done:  E(RB3LYP) =  -2415.08624869     a.u. after    3 cycles
 SCF Done:  E(RB3LYP) =  -2415.08623928     a.u. after    5 cycles
 SCF Done:  E(RB3LYP) =  -2415.08624255     a.u. after    2 cycles
 SCF Done:  E(RB3LYP) =  -2415.08623959     a.u. after    2 cycles
 SCF Done:  E(RB3LYP) =  -2415.08624226     a.u. after    2 cycles
 SCF Done:  E(RB3LYP) =  -2415.08624314     a.u. after    2 cycles
 SCF Done:  E(RB3LYP) =  -2415.08624282     a.u. after    2 cycles
 Optimization completed.
    -- Stationary point found.
 Normal termination of Gaussian 16 at Sun Aug 23 07:33:00 2020.

 ----------------------------------------------------------------------
 # freq B3LYP/6-31G* scf=qc volume NMR pop=NPA density=current Geom=All
 Check Guess=Read
 ----------------------------------------------------------------------

 Structure from the checkpoint file:  "phosphine_11_conf92.chk"
 -------------------
 Title Card Required
 -------------------
 Charge =  0 Multiplicity = 1

 SCF Done:  E(RB3LYP) =  -2415.08624282     a.u. after    1 cycles

      1  C    Isotropic =    67.5411   Anisotropy =   140.5866

      2  C    Isotropic =    60.1989   Anisotropy =   160.2586

      3  C    Isotropic =    58.7330   Anisotropy =   177.4385

      4  C    Isotropic =    61.8753   Anisotropy =   168.6121

      5  C    Isotropic =    67.5422   Anisotropy =   140.1039

      6  C    Isotropic =    51.5902   Anisotropy =   109.1634

      7  Cl   Isotropic =   720.9717   Anisotropy =   452.8659

      8  P    Isotropic =   364.7692   Anisotropy =    37.3484

      9  C    Isotropic =    58.7729   Anisotropy =   177.4197

     10  C    Isotropic =    61.8796   Anisotropy =   168.6507

     11  C    Isotropic =    67.5386   Anisotropy =   140.1247

     12  C    Isotropic =    51.5971   Anisotropy =   109.1527

     13  C    Isotropic =    67.5515   Anisotropy =   140.5625

     14  C    Isotropic =    60.2037   Anisotropy =   160.2786

     15  Cl   Isotropic =   720.9469   Anisotropy =   452.8936

     16  C    Isotropic =    58.7269   Anisotropy =   177.4670

     17  C    Isotropic =    60.2639   Anisotropy =   160.3189

     18  C    Isotropic =    67.5649   Anisotropy =   140.5765

     19  C    Isotropic =    51.6163   Anisotropy =   109.1194

     20  C    Isotropic =    67.5421   Anisotropy =   140.0958

     21  C    Isotropic =    61.9358   Anisotropy =   168.6070

     22  Cl   Isotropic =   720.9539   Anisotropy =   453.0516

     23  H    Isotropic =    25.0903   Anisotropy =     6.6363

     24  H    Isotropic =    24.7762   Anisotropy =     8.9682

     25  H    Isotropic =    25.5802   Anisotropy =    12.1033

     26  H    Isotropic =    25.2095   Anisotropy =     8.1387

     27  H    Isotropic =    25.5770   Anisotropy =    12.1118

     28  H    Isotropic =    25.2065   Anisotropy =     8.1421

     29  H    Isotropic =    25.0938   Anisotropy =     6.6289

     30  H    Isotropic =    24.7774   Anisotropy =     8.9662

     31  H    Isotropic =    24.7814   Anisotropy =     8.9771

     32  H    Isotropic =    25.0949   Anisotropy =     6.6299

     33  H    Isotropic =    25.2107   Anisotropy =     8.1424

     34  H    Isotropic =    25.5845   Anisotropy =    12.1286

  Exact polarizability: 280.726   0.095 280.456  -0.021  -0.114 185.141
 Approx polarizability: 393.632   0.222 393.161  -0.047  -0.263 343.221

                      1                      2                      3
                      A                      A                      A
 Frequencies --     20.9481                22.8619                29.3412
 Red. masses --      4.4688                 4.7108                 9.8235
 Frc consts  --      0.0012                 0.0015                 0.0050
 IR Inten    --      0.2875                 0.2838                 0.1631

                      4                      5                      6
                      A                      A                      A
 Frequencies --     29.4176                37.8672                39.8229
 Red. masses --      8.6951                 5.8094                 5.8635
 Frc consts  --      0.0044                 0.0049                 0.0055
 IR Inten    --      0.1918                 0.1460                 0.0824

                      7                      8                      9
                      A                      A                      A
 Frequencies --    109.1153               117.5765               117.7248
 Red. masses --      8.8632                 8.8283                 8.8325
 Frc consts  --      0.0622                 0.0719                 0.0721
 IR Inten    --      0.0248                 0.3533                 0.3505

                     10                     11                     12
                      A                      A                      A
 Frequencies --    181.0699               187.3098               187.7055
 Red. masses --     10.0380                 8.7789                 8.7955
 Frc consts  --      0.1939                 0.1815                 0.1826
 IR Inten    --      0.3324                 0.5751                 0.5726

                     13                     14                     15
                      A                      A                      A
 Frequencies --    263.9859               293.6336               293.6825
 Red. masses --      8.9732                 8.4150                 8.3922
 Frc consts  --      0.3684                 0.4275                 0.4265
 IR Inten    --      0.2165                 0.9058                 0.9015

                     16                     17                     18
                      A                      A                      A
 Frequencies --    310.8284               328.6921               328.7630
 Red. masses --      6.0456                 5.9817                 5.9912
 Frc consts  --      0.3441                 0.3808                 0.3815
 IR Inten    --      0.0037                 1.8813                 1.9080

                     19                     20                     21
                      A                      A                      A
 Frequencies --    383.9215               384.1392               414.5823
 Red. masses --      8.0356                 8.0098                 3.0436
 Frc consts  --      0.6978                 0.6964                 0.3082
 IR Inten    --     20.9329                20.9882                 0.0644

                     22                     23                     24
                      A                      A                      A
 Frequencies --    414.6785               416.6309               426.9329
 Red. masses --      3.0450                 3.2055                 6.6265
 Frc consts  --      0.3085                 0.3278                 0.7116
 IR Inten    --      0.0512                 0.1606                 2.9401

                     25                     26                     27
                      A                      A                      A
 Frequencies --    499.4961               509.2929               509.4781
 Red. masses --      5.5082                 3.6421                 3.6448
 Frc consts  --      0.8097                 0.5566                 0.5574
 IR Inten    --      6.8685                20.0534                19.8320

                     28                     29                     30
                      A                      A                      A
 Frequencies --    531.5398               548.7835               548.8515
 Red. masses --      4.5757                 7.4530                 7.4315
 Frc consts  --      0.7617                 1.3225                 1.3190
 IR Inten    --      9.8519                 5.4322                 5.4525

                     31                     32                     33
                      A                      A                      A
 Frequencies --    644.3312               644.3765               645.3005
 Red. masses --      7.1596                 7.1599                 7.1685
 Frc consts  --      1.7513                 1.7516                 1.7587
 IR Inten    --      0.0371                 0.0379                 0.0966

                     34                     35                     36
                      A                      A                      A
 Frequencies --    718.1342               718.2613               718.6849
 Red. masses --      4.5823                 4.5881                 4.6027
 Frc consts  --      1.3923                 1.3946                 1.4007
 IR Inten    --      1.6901                 1.6173                 0.3647

                     37                     38                     39
                      A                      A                      A
 Frequencies --    746.1550               751.6466               751.6807
 Red. masses --      7.2625                 7.2736                 7.2754
 Frc consts  --      2.3823                 2.4212                 2.4220
 IR Inten    --     14.6105                54.4419                54.2351

                     40                     41                     42
                      A                      A                      A
 Frequencies --    833.6135               834.1259               834.1866
 Red. masses --      1.4174                 1.4323                 1.4319
 Frc consts  --      0.5803                 0.5872                 0.5871
 IR Inten    --     23.3911                32.9955                32.6585

                     43                     44                     45
                      A                      A                      A
 Frequencies --    845.7867               845.8510               848.8339
 Red. masses --      1.2468                 1.2467                 1.2500
 Frc consts  --      0.5255                 0.5255                 0.5306
 IR Inten    --      0.6312                 0.6480                 0.2805

                     46                     47                     48
                      A                      A                      A
 Frequencies --    969.5152               969.5467               969.9389
 Red. masses --      1.2760                 1.2761                 1.2871
 Frc consts  --      0.7066                 0.7067                 0.7134
 IR Inten    --      0.1555                 0.1528                 0.2255

                     49                     50                     51
                      A                      A                      A
 Frequencies --    973.2269               973.3300               976.4276
 Red. masses --      1.3466                 1.3455                 1.3236
 Frc consts  --      0.7515                 0.7510                 0.7435
 IR Inten    --      0.0108                 0.0118                 0.4189

                     52                     53                     54
                      A                      A                      A
 Frequencies --   1027.9435              1027.9946              1029.6255
 Red. masses --      4.7554                 4.7656                 4.7021
 Frc consts  --      2.9606                 2.9672                 2.9370
 IR Inten    --     62.7076                62.7073                 5.1143

                     55                     56                     57
                      A                      A                      A
 Frequencies --   1097.7558              1097.8429              1101.5619
 Red. masses --      7.9008                 7.9436                 8.0672
 Frc consts  --      5.6096                 5.6409                 5.7676
 IR Inten    --     81.2272                81.6722                13.7655

                     58                     59                     60
                      A                      A                      A
 Frequencies --   1118.1676              1118.4705              1121.3825
 Red. masses --      2.1234                 2.1200                 2.1026
 Frc consts  --      1.5642                 1.5626                 1.5578
 IR Inten    --     33.1232                32.1930                 6.4781

                     61                     62                     63
                      A                      A                      A
 Frequencies --   1139.2283              1139.4264              1139.6614
 Red. masses --      1.4012                 1.4018                 1.4024
 Frc consts  --      1.0715                 1.0723                 1.0732
 IR Inten    --      0.1272                 1.6546                 2.3079

                     64                     65                     66
                      A                      A                      A
 Frequencies --   1218.9951              1219.4999              1221.0022
 Red. masses --      1.1568                 1.1572                 1.1520
 Frc consts  --      1.0128                 1.0140                 1.0119
 IR Inten    --      4.8637                 4.6927                 0.9924

                     67                     68                     69
                      A                      A                      A
 Frequencies --   1318.2908              1322.1680              1322.3896
 Red. masses --      6.9322                 7.4951                 7.7951
 Frc consts  --      7.0981                 7.7197                 8.0314
 IR Inten    --      1.3171                 2.6688                 2.6619

                     70                     71                     72
                      A                      A                      A
 Frequencies --   1337.1667              1337.4727              1337.9664
 Red. masses --      1.3360                 1.3426                 1.3386
 Frc consts  --      1.4074                 1.4150                 1.4119
 IR Inten    --      0.3113                 0.8444                 1.1194

                     73                     74                     75
                      A                      A                      A
 Frequencies --   1429.5544              1429.8742              1430.1475
 Red. masses --      2.6346                 2.6445                 2.6383
 Frc consts  --      3.1722                 3.1856                 3.1793
 IR Inten    --     19.1226                 6.0853                 6.6884

                     76                     77                     78
                      A                      A                      A
 Frequencies --   1527.0652              1527.1532              1527.2544
 Red. masses --      2.0781                 2.0905                 2.0796
 Frc consts  --      2.8552                 2.8725                 2.8579
 IR Inten    --     63.1450                27.2382                51.6476

                     79                     80                     81
                      A                      A                      A
 Frequencies --   1611.0278              1611.2335              1611.3291
 Red. masses --      6.6390                 6.6633                 6.6576
 Frc consts  --     10.1521                10.1920                10.1845
 IR Inten    --      3.8403                 3.7982                 3.8646

                     82                     83                     84
                      A                      A                      A
 Frequencies --   1633.4063              1633.4590              1634.4900
 Red. masses --      5.4311                 5.4257                 5.4924
 Frc consts  --      8.5373                 8.5295                 8.6452
 IR Inten    --     29.8756                29.6133                13.1228

                     85                     86                     87
                      A                      A                      A
 Frequencies --   3188.0047              3188.0803              3188.1729
 Red. masses --      1.0892                 1.0892                 1.0892
 Frc consts  --      6.5225                 6.5226                 6.5229
 IR Inten    --      5.7469                 3.6425                 3.2920

                     88                     89                     90
                      A                      A                      A
 Frequencies --   3205.6534              3205.7748              3206.3522
 Red. masses --      1.0879                 1.0878                 1.0879
 Frc consts  --      6.5865                 6.5869                 6.5897
 IR Inten    --      0.8649                 0.8645                 0.6580

                     91                     92                     93
                      A                      A                      A
 Frequencies --   3222.5785              3222.6113              3222.7470
 Red. masses --      1.0937                 1.0937                 1.0937
 Frc consts  --      6.6922                 6.6923                 6.6926
 IR Inten    --      2.4434                 2.6704                 9.5045

                     94                     95                     96
                      A                      A                      A
 Frequencies --   3223.6065              3223.6891              3223.9214
 Red. masses --      1.0940                 1.0939                 1.0941
 Frc consts  --      6.6979                 6.6979                 6.7001
 IR Inten    --      5.6222                 5.4349                 0.3133

 - Thermochemistry -
 -------------------
 Temperature   298.150 Kelvin.  Pressure   1.00000 Atm.
 Atom     1 has atomic number  6 and mass  12.00000

 Molecular mass:   363.97422 amu.
 Principal axes and moments of inertia in atomic units:
                           1         2         3
     Eigenvalues --  ******************************
           X            0.99984   0.01796  -0.00001
           Y           -0.01796   0.99984  -0.00002
           Z            0.00001   0.00002   1.00000
 This molecule is an asymmetric top.
 Rotational symmetry number  1.
 Warning -- assumption of classical behavior for rotation
           may cause significant error
 Rotational temperatures (Kelvin)      0.00723     0.00723     0.00405
 Rotational constants (GHZ):           0.15068     0.15055     0.08440
 Zero-point vibrational energy     643727.5 (Joules/Mol)
                                  153.85455 (Kcal/Mol)
 Warning -- explicit consideration of  30 degrees of freedom as
           vibrations may cause significant error
 Vibrational temperatures:     30.14    32.89    42.22    42.33    54.48
          (Kelvin)             57.30   156.99   169.17   169.38   260.52
                              269.50   270.07   379.82   422.47   422.54
                              447.21   472.91   473.02   552.38   552.69
                              596.49   596.63   599.44   614.26   718.66
                              732.76   733.03   764.77   789.58   789.67
                              927.05   927.11   928.44  1033.23  1033.42
                             1034.03  1073.55  1081.45  1081.50  1199.38
                             1200.12  1200.21  1216.90  1216.99  1221.28
                             1394.92  1394.96  1395.53  1400.26  1400.40
                             1404.86  1478.98  1479.05  1481.40  1579.43
                             1579.55  1584.90  1608.79  1609.23  1613.42
                             1639.10  1639.38  1639.72  1753.86  1754.59
                             1756.75  1896.73  1902.30  1902.62  1923.88
                             1924.32  1925.04  2056.81  2057.27  2057.66
                             2197.11  2197.23  2197.38  2317.91  2318.21
                             2318.34  2350.11  2350.18  2351.67  4586.83
                             4586.94  4587.07  4612.22  4612.39  4613.23
                             4636.57  4636.62  4636.81  4638.05  4638.17
                             4638.50

 Zero-point correction=                           0.245183 (Hartree/Particle)
 Thermal correction to Energy=                    0.264840
 Thermal correction to Enthalpy=                  0.265784
 Thermal correction to Gibbs Free Energy=         0.192196
 Sum of electronic and zero-point Energies=          -2414.841060
 Sum of electronic and thermal Energies=             -2414.821403
 Sum of electronic and thermal Enthalpies=           -2414.820459
 Sum of electronic and thermal Free Energies=        -2414.894047

                     E (Thermal)             CV                S
                      KCal/Mol        Cal/Mol-Kelvin    Cal/Mol-Kelvin
 Total                  166.189             74.126            154.879
 Electronic               0.000              0.000              0.000
 Translational            0.889              2.981             43.569
 Rotational               0.889              2.981             36.372
 Vibrational            164.412             68.165             74.938
 Vibration     1          0.593              1.986              6.542
 Vibration     2          0.593              1.985              6.369
 Vibration     3          0.593              1.984              5.873
 Vibration     4          0.593              1.984              5.868
 Vibration     5          0.594              1.982              5.368
 Vibration     6          0.594              1.981              5.268
 Vibration     7          0.606              1.942              3.285
 Vibration     8          0.608              1.935              3.140
 Vibration     9          0.608              1.935              3.137
 Vibration    10          0.630              1.865              2.317
 Vibration    11          0.632              1.857              2.254
 Vibration    12          0.632              1.857              2.250
 Vibration    13          0.671              1.739              1.635
 Vibration    14          0.688              1.686              1.453
 Vibration    15          0.688              1.686              1.453
 Vibration    16          0.700              1.653              1.358
 Vibration    17          0.712              1.618              1.267
 Vibration    18          0.712              1.618              1.266
 Vibration    19          0.753              1.504              1.024
 Vibration    20          0.753              1.504              1.023
 Vibration    21          0.778              1.439              0.911
 Vibration    22          0.778              1.438              0.910
 Vibration    23          0.780              1.434              0.903
 Vibration    24          0.789              1.412              0.869
 Vibration    25          0.855              1.251              0.659
 Vibration    26          0.864              1.229              0.635
 Vibration    27          0.865              1.229              0.635
 Vibration    28          0.887              1.180              0.584
 Vibration    29          0.904              1.142              0.547
 Vibration    30          0.904              1.142              0.547

                           ! Non-Optimized Parameters !
 Normal termination of Gaussian 16 at Sun Aug 23 07:48:36 2020.
 Gaussian 16:  ES64L-G16RevA.03 25-Dec-2016

 ----------------------------------------------------------------------
 # TD(NStates=10, Root=1) B3LYP/6-31G* scf=qc volume pop=NPA density=cu
 rrent Geom=AllCheck Guess=Read
 ----------------------------------------------------------------------

 Structure from the checkpoint file:  "phosphine_11_conf93.chk"
 -------------------
 Title Card Required
 -------------------
 Charge =  0 Multiplicity = 1

                         Standard orientation:
 ---------------------------------------------------------------------
 Center     Atomic      Atomic             Coordinates (Angstroms)
 Number     Number       Type             X           Y           Z
 ---------------------------------------------------------------------
      1          6           0       -1.616079   -3.715079    0.854329
      2          6           0       -0.921398   -2.624231    1.373782
      3          6           0       -0.952985   -1.369642    0.742317
      4          6           0       -1.724278   -1.230656   -0.421248
      5          6           0       -2.435282   -2.309967   -0.947922
      6          6           0       -2.370884   -3.545616   -0.306137
      7         17           0       -3.262540   -4.909669   -0.964182
      8         15           0        0.000792   -0.000169    1.547387
      9          6           0        1.663708   -0.140869    0.742299
     10          6           0        1.929620   -0.879042   -0.420661
     11          6           0        3.219940   -0.954595   -0.947161
     12          6           0        4.257297   -0.279709   -0.305856
     13          6           0        4.026027    0.459415    0.854035
     14          6           0        2.733923    0.514994    1.373377
     15         17           0        5.884532   -0.369116   -0.963731
     16          6           0       -0.709148    1.510401    0.742731
     17          6           0       -1.816650    2.105014    1.370206
     18          6           0       -2.415182    3.251436    0.850830
     19          6           0       -1.886911    3.825413   -0.305319
     20          6           0       -0.779366    3.268909   -0.942814
     21          6           0       -0.199053    2.113895   -0.416420
     22         17           0       -2.623970    5.278901   -0.963236
     23          1           0       -1.582965   -4.681018    1.347073
     24          1           0       -0.349208   -2.752579    2.289462
     25          1           0       -1.779431   -0.270707   -0.925372
     26          1           0       -3.031847   -2.194131   -1.846814
     27          1           0        1.126323   -1.407745   -0.924509
     28          1           0        3.418394   -1.529723   -1.845582
     29          1           0        4.845580    0.972060    1.346429
     30          1           0        2.558496    1.075224    2.288644
     31          1           0       -2.217250    1.669808    2.282608
     32          1           0       -3.272375    3.701448    1.340364
     33          1           0       -0.377605    3.731466   -1.838331
     34          1           0        0.663837    1.686032   -0.917446
 ---------------------------------------------------------------------

 SCF Done:  E(RB3LYP) =  -2415.08624282     a.u. after    1 cycles

 Excitation energies and oscillator strengths:

 Excited State   1:      Singlet-A      4.4046 eV  281.49 nm  f=0.1827  <S**2>=0.000
      93 -> 94         0.69578
 This state for optimization and/or second-order correction.
 Total Energy, E(TD-HF/TD-DFT) =  -2414.92437549
 Copying the excited state density for this state as the 1-particle RhoCI density.

 Excited State   2:      Singlet-A      4.4074 eV  281.31 nm  f=0.1843  <S**2>=0.000
      93 -> 95         0.69574

 Excited State   3:      Singlet-A      4.6118 eV  268.84 nm  f=0.0036  <S**2>=0.000
      89 -> 94        -0.10985
      90 -> 95        -0.11047
      93 -> 96         0.67972

 Excited State   4:      Singlet-A      4.9170 eV  252.16 nm  f=0.0001  <S**2>=0.000
      88 -> 94         0.11790
      89 -> 95        -0.11795
      89 -> 97        -0.10017
      90 -> 94        -0.11754
      93 -> 98         0.64576

 Excited State   5:      Singlet-A      4.9183 eV  252.09 nm  f=0.0001  <S**2>=0.000
      88 -> 95         0.11777
      89 -> 94        -0.11844
      90 -> 95         0.11890
      90 -> 97        -0.10122
      93 -> 99         0.64505

 Excited State   6:      Singlet-A      5.0221 eV  246.88 nm  f=0.0090  <S**2>=0.000
      91 -> 94         0.11839
      92 -> 95        -0.11896
      93 -> 97         0.66871

 Excited State   7:      Singlet-A      5.2596 eV  235.73 nm  f=0.0017  <S**2>=0.000
      89 -> 94         0.13349
      90 -> 95         0.12962
      91 -> 94         0.23401
      91 -> 95         0.37504
      91 -> 98         0.12599
      92 -> 94         0.38135
      92 -> 95        -0.23277
      92 -> 99        -0.12306
      93 -> 96         0.10392

 Excited State   8:      Singlet-A      5.3610 eV  231.27 nm  f=0.0051  <S**2>=0.000
      88 -> 94        -0.19232
      89 -> 95         0.18792
      89 -> 97         0.11222
      90 -> 94         0.18852
      91 -> 95         0.12820
      91 -> 96         0.38211
      91 -> 99         0.13569
      92 -> 94        -0.12697
      92 -> 96        -0.22137
      92 -> 98        -0.13836
      93 -> 98         0.22731

 Excited State   9:      Singlet-A      5.3622 eV  231.22 nm  f=0.0049  <S**2>=0.000
      88 -> 95         0.18982
      89 -> 94        -0.18838
      90 -> 95         0.18712
      90 -> 97        -0.11227
      91 -> 94        -0.12909
      91 -> 96         0.21920
      91 -> 98        -0.13697
      92 -> 95        -0.13197
      92 -> 96         0.38542
      92 -> 99        -0.13650
      93 -> 99        -0.22850

 Excited State  10:      Singlet-A      5.4209 eV  228.71 nm  f=0.1608  <S**2>=0.000
      91 -> 94         0.34524
      91 -> 95         0.31269
      92 -> 94        -0.31258
      92 -> 95         0.34128
      92 -> 96         0.13548

 The electronic state is 1-A.
 Alpha  occ. eigenvalues -- -101.55494-101.55493-101.55489 -77.10094 -10.26330
 Alpha  occ. eigenvalues --  -10.26330 -10.26324 -10.21419 -10.21418 -10.21416
 Alpha  occ. eigenvalues --  -10.21368 -10.21367 -10.21365 -10.21347 -10.21347
 Alpha  occ. eigenvalues --  -10.21343 -10.21314 -10.21313 -10.21310 -10.21250
 Alpha  occ. eigenvalues --  -10.21249 -10.21244  -9.47126  -9.47125  -9.47121
 Alpha  occ. eigenvalues --   -7.23520  -7.23520  -7.23516  -7.22556  -7.22555
 Alpha  occ. eigenvalues --   -7.22552  -7.22518  -7.22518  -7.22514  -6.56809
 Alpha  occ. eigenvalues --   -4.73069  -4.73069  -4.72564  -0.89964  -0.89792
 Alpha  occ. eigenvalues --   -0.89789  -0.85153  -0.84238  -0.84235  -0.76898
 Alpha  occ. eigenvalues --   -0.76781  -0.76779  -0.76742  -0.73907  -0.73905
 Alpha  occ. eigenvalues --   -0.65058  -0.63150  -0.62987  -0.62986  -0.60497
 Alpha  occ. eigenvalues --   -0.60496  -0.57615  -0.52432  -0.52430  -0.49746
 Alpha  occ. eigenvalues --   -0.48088  -0.47999  -0.47998  -0.47167  -0.47167
 Alpha  occ. eigenvalues --   -0.46321  -0.44340  -0.44246  -0.44244  -0.42726
 Alpha  occ. eigenvalues --   -0.42723  -0.40319  -0.40239  -0.40236  -0.39580
 Alpha  occ. eigenvalues --   -0.37220  -0.37218  -0.37129  -0.35191  -0.35186
 Alpha  occ. eigenvalues --   -0.34134  -0.33462  -0.33458  -0.31868  -0.31863
 Alpha  occ. eigenvalues --   -0.31860  -0.27683  -0.27414  -0.27144  -0.27140
 Alpha  occ. eigenvalues --   -0.25832  -0.25825  -0.22677
 Alpha virt. eigenvalues --   -0.03960  -0.03953  -0.03032  -0.01964  -0.01789
 Alpha virt. eigenvalues --   -0.01782   0.02241   0.02244   0.02402   0.05588
 Alpha virt. eigenvalues --    0.05599   0.10343   0.12154   0.12344   0.12346

 Mulliken charges:
               1
     1  C   -0.125883
     2  C   -0.157931
     3  C   -0.109991
     4  C   -0.172591
     5  C   -0.113794
     6  C   -0.092287
     7  Cl  -0.031233
     8  P    0.446581
     9  C   -0.126149
    10  C   -0.163511
    11  C   -0.121839
    12  C   -0.095343
    13  C   -0.118351
    14  C   -0.174548
    15  Cl  -0.034897
    16  C   -0.079595
    17  C   -0.156734
    18  C   -0.115431
    19  C   -0.063338
    20  C   -0.116654
    21  C   -0.148171
    22  Cl   0.016870
    23  H    0.150770
    24  H    0.139635
    25  H    0.136381
    26  H    0.152637
    27  H    0.153072
    28  H    0.151879
    29  H    0.147580
    30  H    0.130982
    31  H    0.162169
    32  H    0.170794
    33  H    0.174540
    34  H    0.184380
 Sum of Mulliken charges =   0.00000

 Dipole moment (field-independent basis, Debye):
    X=             -2.0735    Y=              3.6592    Z=              1.9742  Tot=              4.6462
 Quadrupole moment (field-independent basis, Debye-Ang):
   XX=           -173.4914   YY=           -161.6211   ZZ=           -145.0375
   XY=             -6.7273   XZ=             -0.2634   YZ=             -1.0205

 Summary of Natural Population Analysis:

                                       Natural Population
                Natural  -----------------------------------------------
    Atom  No    Charge         Core      Valence    Rydberg      Total
 -----------------------------------------------------------------------
      C    1   -0.26452      1.99894     4.24901    0.01657     6.26452
      C    2   -0.19922      1.99901     4.18454    0.01566     6.19922
      C    3   -0.44624      1.99887     4.42314    0.02423     6.44624
      C    4   -0.24926      1.99899     4.23280    0.01747     6.24926
      C    5   -0.23589      1.99893     4.22148    0.01548     6.23589
      C    6   -0.07444      1.99854     4.05368    0.02221     6.07444
     Cl    7   -0.00733      9.99967     6.98742    0.02023    17.00733
      P    8    1.21209      9.99758     3.74049    0.04985    13.78791
      C    9   -0.47216      1.99888     4.44718    0.02610     6.47216
      C   10   -0.22586      1.99899     4.20959    0.01728     6.22586
      C   11   -0.25020      1.99893     4.23525    0.01602     6.25020
      C   12   -0.08043      1.99854     4.05964    0.02225     6.08043
      C   13   -0.25073      1.99894     4.23583    0.01596     6.25073
      C   14   -0.22538      1.99901     4.21024    0.01613     6.22538
     Cl   15   -0.00979      9.99967     6.98977    0.02035    17.00979
      C   16   -0.37665      1.99891     4.35287    0.02487     6.37665
      C   17   -0.19195      1.99902     4.17781    0.01512     6.19195
      C   18   -0.24514      1.99893     4.23086    0.01535     6.24514
      C   19   -0.01478      1.99855     3.99395    0.02227     6.01478
      C   20   -0.24095      1.99892     4.22677    0.01526     6.24095
      C   21   -0.19406      1.99900     4.17909    0.01597     6.19406
     Cl   22    0.02902      9.99967     6.95205    0.01927    16.97098
      H   23    0.25263      0.00000     0.74634    0.00103     0.74737
      H   24    0.23934      0.00000     0.75956    0.00110     0.76066
      H   25    0.24002      0.00000     0.75864    0.00134     0.75998
      H   26    0.25335      0.00000     0.74560    0.00105     0.74665
      H   27    0.24893      0.00000     0.74955    0.00152     0.75107
      H   28    0.25326      0.00000     0.74568    0.00105     0.74674
      H   29    0.25040      0.00000     0.74852    0.00109     0.74960
      H   30    0.23348      0.00000     0.76560    0.00092     0.76652
      H   31    0.25041      0.00000     0.74842    0.00117     0.74959
      H   32    0.26147      0.00000     0.73747    0.00106     0.73853
      H   33    0.26374      0.00000     0.73521    0.00105     0.73626
      H   34    0.26682      0.00000     0.73200    0.00118     0.73318
 =======================================================================
   * Total *    0.00000     75.97648   109.56604    0.45748   186.00000

 Normal termination of Gaussian 16 at Sun Aug 23 08:06:36 2020.
