 Gaussian 16, Revision A.03,

 ---------------------------------
 # opt=CalcAll B3LYP/6-31G* scf=qc
 ---------------------------------

 -------------------
 Title Card Required
 -------------------
 Symbolic Z-matrix:
 Charge =  0 Multiplicity = 1

 SCF Done:  E(RB3LYP) =  -2415.06988853     a.u. after    8 cycles
 SCF Done:  E(RB3LYP) =  -2415.08348118     a.u. after   19 cycles
 SCF Done:  E(RB3LYP) =  -2415.08503271     a.u. after   17 cycles
 SCF Done:  E(RB3LYP) =  -2415.08572490     a.u. after   15 cycles
 SCF Done:  E(RB3LYP) =  -2415.08603910     a.u. after   15 cycles
 SCF Done:  E(RB3LYP) =  -2415.08610473     a.u. after   17 cycles
 SCF Done:  E(RB3LYP) =  -2415.08614519     a.u. after   15 cycles
 SCF Done:  E(RB3LYP) =  -2415.08623912     a.u. after   13 cycles
 SCF Done:  E(RB3LYP) =  -2415.08624422     a.u. after    7 cycles
 SCF Done:  E(RB3LYP) =  -2415.08624489     a.u. after    2 cycles
 SCF Done:  E(RB3LYP) =  -2415.08623900     a.u. after    3 cycles
 SCF Done:  E(RB3LYP) =  -2415.08624724     a.u. after    4 cycles
 SCF Done:  E(RB3LYP) =  -2415.08624567     a.u. after    3 cycles
 SCF Done:  E(RB3LYP) =  -2415.08624255     a.u. after    2 cycles
 SCF Done:  E(RB3LYP) =  -2415.08624816     a.u. after    2 cycles
 Optimization completed.
    -- Stationary point found.
 Normal termination of Gaussian 16 at Sun Aug 23 02:56:18 2020.

 ----------------------------------------------------------------------
 # freq B3LYP/6-31G* scf=qc volume NMR pop=NPA density=current Geom=All
 Check Guess=Read
 ----------------------------------------------------------------------

 Structure from the checkpoint file:  "phosphine_11_conf222.chk"
 -------------------
 Title Card Required
 -------------------
 Charge =  0 Multiplicity = 1

 SCF Done:  E(RB3LYP) =  -2415.08624816     a.u. after    1 cycles

      1  C    Isotropic =    67.5375   Anisotropy =   140.1248

      2  C    Isotropic =    61.8847   Anisotropy =   168.6490

      3  C    Isotropic =    58.7675   Anisotropy =   177.4448

      4  C    Isotropic =    60.2112   Anisotropy =   160.2898

      5  C    Isotropic =    67.5505   Anisotropy =   140.5535

      6  C    Isotropic =    51.5987   Anisotropy =   109.1324

      7  Cl   Isotropic =   720.9190   Anisotropy =   452.9628

      8  P    Isotropic =   364.8731   Anisotropy =    37.9913

      9  C    Isotropic =    58.7431   Anisotropy =   177.4313

     10  C    Isotropic =    61.8796   Anisotropy =   168.6104

     11  C    Isotropic =    67.5379   Anisotropy =   140.1062

     12  C    Isotropic =    51.5922   Anisotropy =   109.1604

     13  C    Isotropic =    67.5465   Anisotropy =   140.5902

     14  C    Isotropic =    60.2103   Anisotropy =   160.2681

     15  Cl   Isotropic =   720.9513   Anisotropy =   452.9156

     16  C    Isotropic =    58.7412   Anisotropy =   177.4408

     17  C    Isotropic =    60.2390   Anisotropy =   160.3096

     18  C    Isotropic =    67.5492   Anisotropy =   140.5711

     19  C    Isotropic =    51.6021   Anisotropy =   109.1320

     20  C    Isotropic =    67.5379   Anisotropy =   140.1146

     21  C    Isotropic =    61.9184   Anisotropy =   168.5973

     22  Cl   Isotropic =   720.9181   Anisotropy =   453.0414

     23  H    Isotropic =    25.2068   Anisotropy =     8.1427

     24  H    Isotropic =    25.5764   Anisotropy =    12.1149

     25  H    Isotropic =    24.7765   Anisotropy =     8.9691

     26  H    Isotropic =    25.0943   Anisotropy =     6.6281

     27  H    Isotropic =    25.5796   Anisotropy =    12.1048

     28  H    Isotropic =    25.2091   Anisotropy =     8.1386

     29  H    Isotropic =    25.0907   Anisotropy =     6.6365

     30  H    Isotropic =    24.7775   Anisotropy =     8.9666

     31  H    Isotropic =    24.7785   Anisotropy =     8.9758

     32  H    Isotropic =    25.0939   Anisotropy =     6.6325

     33  H    Isotropic =    25.2086   Anisotropy =     8.1431

     34  H    Isotropic =    25.5826   Anisotropy =    12.1179

  Exact polarizability: 280.604  -0.056 280.583   0.006   0.054 185.145
 Approx polarizability: 393.391  -0.136 393.390   0.013   0.125 343.235

                      1                      2                      3
                      A                      A                      A
 Frequencies --     22.9269                23.5132                29.7001
 Red. masses --      4.8881                 5.2039                 8.2362
 Frc consts  --      0.0015                 0.0017                 0.0043
 IR Inten    --      0.2628                 0.2556                 0.1956

                      4                      5                      6
                      A                      A                      A
 Frequencies --     30.1554                38.3776                40.3110
 Red. masses --      7.4377                 7.2870                 4.8722
 Frc consts  --      0.0040                 0.0063                 0.0047
 IR Inten    --      0.2143                 0.1815                 0.0465

                      7                      8                      9
                      A                      A                      A
 Frequencies --    109.3221               117.6647               117.7174
 Red. masses --      8.8651                 8.8326                 8.8321
 Frc consts  --      0.0624                 0.0720                 0.0721
 IR Inten    --      0.0247                 0.3516                 0.3500

                     10                     11                     12
                      A                      A                      A
 Frequencies --    181.0574               187.2980               187.6955
 Red. masses --     10.0380                 8.7815                 8.7988
 Frc consts  --      0.1939                 0.1815                 0.1826
 IR Inten    --      0.3323                 0.5731                 0.5685

                     13                     14                     15
                      A                      A                      A
 Frequencies --    264.0588               293.7166               293.8048
 Red. masses --      8.9788                 8.4120                 8.4152
 Frc consts  --      0.3689                 0.4276                 0.4280
 IR Inten    --      0.2162                 0.9111                 0.9077

                     16                     17                     18
                      A                      A                      A
 Frequencies --    310.8881               328.7549               328.8416
 Red. masses --      6.0417                 5.9762                 5.9833
 Frc consts  --      0.3440                 0.3806                 0.3812
 IR Inten    --      0.0032                 1.8731                 1.8859

                     19                     20                     21
                      A                      A                      A
 Frequencies --    384.0081               384.1589               414.7877
 Red. masses --      8.0402                 8.0190                 3.0463
 Frc consts  --      0.6986                 0.6973                 0.3088
 IR Inten    --     20.9996                21.0119                 0.0537

                     22                     23                     24
                      A                      A                      A
 Frequencies --    414.8234               416.7965               426.8763
 Red. masses --      3.0463                 3.2109                 6.6125
 Frc consts  --      0.3089                 0.3286                 0.7099
 IR Inten    --      0.0478                 0.1622                 2.9403

                     25                     26                     27
                      A                      A                      A
 Frequencies --    499.5078               509.4885               509.5543
 Red. masses --      5.5235                 3.6461                 3.6536
 Frc consts  --      0.8120                 0.5576                 0.5589
 IR Inten    --      6.8202                19.8939                19.8333

                     28                     29                     30
                      A                      A                      A
 Frequencies --    531.6431               548.8575               548.9356
 Red. masses --      4.5705                 7.4362                 7.4174
 Frc consts  --      0.7611                 1.3198                 1.3169
 IR Inten    --      9.8559                 5.4620                 5.4894

                     31                     32                     33
                      A                      A                      A
 Frequencies --    644.3691               644.3937               645.3295
 Red. masses --      7.1598                 7.1603                 7.1687
 Frc consts  --      1.7516                 1.7518                 1.7589
 IR Inten    --      0.0370                 0.0364                 0.0957

                     34                     35                     36
                      A                      A                      A
 Frequencies --    718.2885               718.3805               718.7290
 Red. masses --      4.5903                 4.5956                 4.6080
 Frc consts  --      1.3954                 1.3973                 1.4025
 IR Inten    --      1.6868                 1.6766                 0.2844

                     37                     38                     39
                      A                      A                      A
 Frequencies --    746.0929               751.6285               751.6985
 Red. masses --      7.2604                 7.2731                 7.2733
 Frc consts  --      2.3812                 2.4209                 2.4214
 IR Inten    --     14.6234                54.3498                54.4454

                     40                     41                     42
                      A                      A                      A
 Frequencies --    833.7508               834.2181               834.3389
 Red. masses --      1.4164                 1.4318                 1.4314
 Frc consts  --      0.5801                 0.5871                 0.5871
 IR Inten    --     23.2730                32.9215                32.8707

                     43                     44                     45
                      A                      A                      A
 Frequencies --    845.9464               846.0569               849.0172
 Red. masses --      1.2466                 1.2465                 1.2500
 Frc consts  --      0.5256                 0.5257                 0.5309
 IR Inten    --      0.6384                 0.6275                 0.2976

                     46                     47                     48
                      A                      A                      A
 Frequencies --    969.6423               969.7556               970.0722
 Red. masses --      1.2761                 1.2766                 1.2876
 Frc consts  --      0.7069                 0.7073                 0.7139
 IR Inten    --      0.1512                 0.1404                 0.2176

                     49                     50                     51
                      A                      A                      A
 Frequencies --    973.4599               973.6172               976.7343
 Red. masses --      1.3452                 1.3441                 1.3220
 Frc consts  --      0.7510                 0.7507                 0.7431
 IR Inten    --      0.0123                 0.0098                 0.4167

                     52                     53                     54
                      A                      A                      A
 Frequencies --   1027.9672              1028.0178              1029.6303
 Red. masses --      4.7548                 4.7660                 4.6995
 Frc consts  --      2.9603                 2.9676                 2.9354
 IR Inten    --     62.7262                62.7328                 5.1136

                     55                     56                     57
                      A                      A                      A
 Frequencies --   1097.7098              1097.7990              1101.4798
 Red. masses --      7.8874                 7.9257                 8.0774
 Frc consts  --      5.5996                 5.6278                 5.7740
 IR Inten    --     80.7508                81.5030                13.6751

                     58                     59                     60
                      A                      A                      A
 Frequencies --   1118.1577              1118.3841              1121.1351
 Red. masses --      2.1241                 2.1207                 2.1012
 Frc consts  --      1.5647                 1.5628                 1.5561
 IR Inten    --     33.2990                32.7094                 6.4688

                     61                     62                     63
                      A                      A                      A
 Frequencies --   1139.2969              1139.5013              1139.5418
 Red. masses --      1.4011                 1.4018                 1.4022
 Frc consts  --      1.0715                 1.0724                 1.0728
 IR Inten    --      0.7844                 0.1322                 3.2465

                     64                     65                     66
                      A                      A                      A
 Frequencies --   1219.0274              1219.4870              1220.8061
 Red. masses --      1.1568                 1.1574                 1.1518
 Frc consts  --      1.0128                 1.0141                 1.0114
 IR Inten    --      4.7416                 4.8113                 0.9612

                     67                     68                     69
                      A                      A                      A
 Frequencies --   1318.3279              1322.2259              1322.3949
 Red. masses --      6.8814                 7.5089                 7.7842
 Frc consts  --      7.0465                 7.7346                 8.0202
 IR Inten    --      1.3262                 2.6618                 2.6657

                     70                     71                     72
                      A                      A                      A
 Frequencies --   1337.1421              1337.5910              1337.7361
 Red. masses --      1.3435                 1.3308                 1.3447
 Frc consts  --      1.4153                 1.4029                 1.4178
 IR Inten    --      0.5476                 0.4600                 1.2839

                     73                     74                     75
                      A                      A                      A
 Frequencies --   1429.5308              1429.9494              1430.1302
 Red. masses --      2.6375                 2.6428                 2.6401
 Frc consts  --      3.1756                 3.1839                 3.1814
 IR Inten    --     18.9327                 6.8698                 6.1384

                     76                     77                     78
                      A                      A                      A
 Frequencies --   1527.0747              1527.1565              1527.2265
 Red. masses --      2.0839                 2.0889                 2.0761
 Frc consts  --      2.8632                 2.8704                 2.8530
 IR Inten    --     48.7336                29.5575                63.6966

                     79                     80                     81
                      A                      A                      A
 Frequencies --   1611.0387              1611.2767              1611.2994
 Red. masses --      6.6452                 6.6642                 6.6620
 Frc consts  --     10.1617                10.1938                10.1908
 IR Inten    --      3.8743                 3.7893                 3.8235

                     82                     83                     84
                      A                      A                      A
 Frequencies --   1633.4290              1633.4660              1634.4965
 Red. masses --      5.4305                 5.4253                 5.4931
 Frc consts  --      8.5367                 8.5290                 8.6463
 IR Inten    --     29.8248                29.6735                13.1137

                     85                     86                     87
                      A                      A                      A
 Frequencies --   3188.0721              3188.1346              3188.1960
 Red. masses --      1.0893                 1.0892                 1.0892
 Frc consts  --      6.5228                 6.5228                 6.5229
 IR Inten    --      6.1574                 3.5433                 2.9825

                     88                     89                     90
                      A                      A                      A
 Frequencies --   3205.6404              3206.0124              3206.5607
 Red. masses --      1.0879                 1.0878                 1.0878
 Frc consts  --      6.5865                 6.5876                 6.5901
 IR Inten    --      0.8533                 0.8679                 0.6524

                     91                     92                     93
                      A                      A                      A
 Frequencies --   3222.6223              3222.6558              3222.7801
 Red. masses --      1.0937                 1.0937                 1.0937
 Frc consts  --      6.6923                 6.6925                 6.6926
 IR Inten    --      2.4491                 2.3584                 9.8595

                     94                     95                     96
                      A                      A                      A
 Frequencies --   3223.6673              3223.7030              3223.9459
 Red. masses --      1.0939                 1.0939                 1.0941
 Frc consts  --      6.6979                 6.6982                 6.7004
 IR Inten    --      5.6447                 5.6233                 0.0626

 - Thermochemistry -
 -------------------
 Temperature   298.150 Kelvin.  Pressure   1.00000 Atm.
 Atom     1 has atomic number  6 and mass  12.00000

 Molecular mass:   363.97422 amu.
 Principal axes and moments of inertia in atomic units:
                           1         2         3
     Eigenvalues --  ******************************
           X            0.99935  -0.03615   0.00000
           Y            0.03615   0.99935   0.00001
           Z           -0.00000  -0.00001   1.00000
 This molecule is an asymmetric top.
 Rotational symmetry number  1.
 Warning -- assumption of classical behavior for rotation
           may cause significant error
 Rotational temperatures (Kelvin)      0.00723     0.00723     0.00405
 Rotational constants (GHZ):           0.15063     0.15059     0.08439
 Zero-point vibrational energy     643783.4 (Joules/Mol)
                                  153.86793 (Kcal/Mol)
 Warning -- explicit consideration of  30 degrees of freedom as
           vibrations may cause significant error
 Vibrational temperatures:     32.99    33.83    42.73    43.39    55.22
          (Kelvin)             58.00   157.29   169.29   169.37   260.50
                              269.48   270.05   379.92   422.59   422.72
                              447.30   473.00   473.13   552.50   552.72
                              596.79   596.84   599.68   614.18   718.68
                              733.04   733.13   764.92   789.68   789.80
                              927.10   927.14   928.49  1033.46  1033.59
                             1034.09  1073.46  1081.43  1081.53  1199.58
                             1200.25  1200.43  1217.13  1217.29  1221.55
                             1395.10  1395.26  1395.72  1400.59  1400.82
                             1405.30  1479.02  1479.09  1481.41  1579.36
                             1579.49  1584.78  1608.78  1609.11  1613.06
                             1639.19  1639.49  1639.55  1753.91  1754.57
                             1756.47  1896.78  1902.39  1902.63  1923.85
                             1924.50  1924.70  2056.78  2057.38  2057.64
                             2197.12  2197.24  2197.34  2317.93  2318.27
                             2318.30  2350.14  2350.19  2351.68  4586.92
                             4587.01  4587.10  4612.20  4612.74  4613.53
                             4636.63  4636.68  4636.86  4638.14  4638.19
                             4638.54

 Zero-point correction=                           0.245204 (Hartree/Particle)
 Thermal correction to Energy=                    0.264848
 Thermal correction to Enthalpy=                  0.265792
 Thermal correction to Gibbs Free Energy=         0.192381
 Sum of electronic and zero-point Energies=          -2414.841044
 Sum of electronic and thermal Energies=             -2414.821400
 Sum of electronic and thermal Enthalpies=           -2414.820456
 Sum of electronic and thermal Free Energies=        -2414.893868

                     E (Thermal)             CV                S
                      KCal/Mol        Cal/Mol-Kelvin    Cal/Mol-Kelvin
 Total                  166.195             74.119            154.508
 Electronic               0.000              0.000              0.000
 Translational            0.889              2.981             43.569
 Rotational               0.889              2.981             36.372
 Vibrational            164.417             68.157             74.567
 Vibration     1          0.593              1.985              6.363
 Vibration     2          0.593              1.985              6.313
 Vibration     3          0.593              1.984              5.849
 Vibration     4          0.594              1.984              5.819
 Vibration     5          0.594              1.982              5.341
 Vibration     6          0.594              1.981              5.244
 Vibration     7          0.606              1.942              3.281
 Vibration     8          0.608              1.935              3.138
 Vibration     9          0.608              1.935              3.138
 Vibration    10          0.630              1.865              2.317
 Vibration    11          0.632              1.857              2.254
 Vibration    12          0.632              1.857              2.250
 Vibration    13          0.671              1.739              1.635
 Vibration    14          0.689              1.685              1.452
 Vibration    15          0.689              1.685              1.452
 Vibration    16          0.700              1.653              1.358
 Vibration    17          0.712              1.618              1.266
 Vibration    18          0.712              1.618              1.266
 Vibration    19          0.753              1.504              1.023
 Vibration    20          0.753              1.504              1.023
 Vibration    21          0.778              1.438              0.910
 Vibration    22          0.778              1.438              0.910
 Vibration    23          0.780              1.434              0.903
 Vibration    24          0.789              1.412              0.869
 Vibration    25          0.855              1.251              0.659
 Vibration    26          0.865              1.229              0.635
 Vibration    27          0.865              1.229              0.635
 Vibration    28          0.887              1.180              0.584
 Vibration    29          0.904              1.142              0.547
 Vibration    30          0.904              1.142              0.546

                           ! Non-Optimized Parameters !
 Normal termination of Gaussian 16 at Sun Aug 23 03:12:08 2020.
 Gaussian 16:  ES64L-G16RevA.03 25-Dec-2016

 ----------------------------------------------------------------------
 # TD(NStates=10, Root=1) B3LYP/6-31G* scf=qc volume pop=NPA density=cu
 rrent Geom=AllCheck Guess=Read
 ----------------------------------------------------------------------

 Structure from the checkpoint file:  "phosphine_11_conf223.chk"
 -------------------
 Title Card Required
 -------------------
 Charge =  0 Multiplicity = 1

                         Standard orientation:
 ---------------------------------------------------------------------
 Center     Atomic      Atomic             Coordinates (Angstroms)
 Number     Number       Type             X           Y           Z
 ---------------------------------------------------------------------
      1          6           0        3.346311   -0.284813   -0.946553
      2          6           0        2.117217    0.115320   -0.420187
      3          6           0        1.599932   -0.475676    0.742237
      4          6           0        2.356826   -1.477247    1.372908
      5          6           0        3.580292   -1.896626    0.853685
      6          6           0        4.065683   -1.292088   -0.305657
      7         17           0        5.613544   -1.802158   -0.963417
      8         15           0        0.000105   -0.000259    1.547095
      9          6           0       -0.387997    1.622974    0.742251
     10          6           0       -1.157630    1.775456   -0.420716
     11          6           0       -1.425442    3.039950   -0.947193
     12          6           0       -0.913416    4.166606   -0.305846
     13          6           0       -0.148003    4.048515    0.854039
     14          6           0        0.100331    2.779268    1.373350
     15         17           0       -1.245328    5.762137   -0.963715
     16          6           0       -1.211742   -1.147774    0.742167
     17          6           0       -2.458847   -1.299547    1.371075
     18          6           0       -3.434094   -2.149033    0.851897
     19          6           0       -3.152328   -2.874342   -0.305560
     20          6           0       -1.919082   -2.757979   -0.944592
     21          6           0       -0.957659   -1.893911   -0.418335
     22         17           0       -4.368441   -3.959374   -0.963213
     23          1           0        3.741210    0.178807   -1.844567
     24          1           0        1.562365    0.901001   -0.923693
     25          1           0        1.988750   -1.935464    2.287732
     26          1           0        4.156126   -2.673294    1.345756
     27          1           0       -1.560126    0.902072   -0.924563
     28          1           0       -2.023763    3.150115   -1.845632
     29          1           0        0.236225    4.935545    1.346455
     30          1           0        0.680537    2.689650    2.288596
     31          1           0       -2.672430   -0.749622    2.284486
     32          1           0       -4.395593   -2.257067    1.342589
     33          1           0       -1.714311   -3.333845   -1.841122
     34          1           0        0.001143   -1.808615   -0.920424
 ---------------------------------------------------------------------

 SCF Done:  E(RB3LYP) =  -2415.08624816     a.u. after    1 cycles

 Excitation energies and oscillator strengths:

 Excited State   1:      Singlet-A      4.4052 eV  281.45 nm  f=0.1830  <S**2>=0.000
      93 -> 94         0.69578
 This state for optimization and/or second-order correction.
 Total Energy, E(TD-HF/TD-DFT) =  -2414.92435875
 Copying the excited state density for this state as the 1-particle RhoCI density.

 Excited State   2:      Singlet-A      4.4067 eV  281.35 nm  f=0.1840  <S**2>=0.000
      93 -> 95         0.69576

 Excited State   3:      Singlet-A      4.6120 eV  268.83 nm  f=0.0036  <S**2>=0.000
      89 -> 94         0.10973
      90 -> 95         0.11003
      93 -> 96         0.67971

 Excited State   4:      Singlet-A      4.9173 eV  252.14 nm  f=0.0001  <S**2>=0.000
      88 -> 94         0.11442
      89 -> 95        -0.11772
      89 -> 97         0.10006
      90 -> 94        -0.11752
      93 -> 98         0.64512

 Excited State   5:      Singlet-A      4.9179 eV  252.11 nm  f=0.0001  <S**2>=0.000
      88 -> 95         0.11431
      89 -> 94        -0.11795
      90 -> 95         0.11822
      90 -> 97         0.10059
      93 -> 99         0.64478

 Excited State   6:      Singlet-A      5.0222 eV  246.87 nm  f=0.0089  <S**2>=0.000
      91 -> 94        -0.11532
      92 -> 95        -0.11561
      93 -> 97         0.66878

 Excited State   7:      Singlet-A      5.2595 eV  235.74 nm  f=0.0017  <S**2>=0.000
      89 -> 94        -0.13216
      90 -> 95        -0.13009
      91 -> 94        -0.24990
      91 -> 95        -0.36610
      91 -> 98        -0.12638
      92 -> 94         0.36932
      92 -> 95        -0.24936
      92 -> 99        -0.12488
      93 -> 96         0.10397

 Excited State   8:      Singlet-A      5.3613 eV  231.26 nm  f=0.0051  <S**2>=0.000
      87 -> 94        -0.10043
      88 -> 94         0.19104
      89 -> 95        -0.18744
      89 -> 97         0.11198
      90 -> 94        -0.18774
      91 -> 95        -0.13109
      91 -> 96         0.38201
      91 -> 99        -0.13368
      92 -> 94        -0.13052
      92 -> 96         0.22201
      92 -> 98        -0.13509
      93 -> 98        -0.22649

 Excited State   9:      Singlet-A      5.3619 eV  231.23 nm  f=0.0050  <S**2>=0.000
      88 -> 95         0.18971
      89 -> 94        -0.18767
      90 -> 95         0.18708
      90 -> 97         0.11199
      91 -> 94        -0.13137
      91 -> 96        -0.22084
      91 -> 98        -0.13434
      92 -> 95         0.13323
      92 -> 96         0.38375
      92 -> 99         0.13417
      93 -> 99        -0.22710

 Excited State  10:      Singlet-A      5.4212 eV  228.70 nm  f=0.1612  <S**2>=0.000
      91 -> 94         0.35449
      91 -> 95         0.30070
      92 -> 94         0.30050
      92 -> 95        -0.35239
      92 -> 96         0.13658

 The electronic state is 1-A.
 Alpha  occ. eigenvalues -- -101.55493-101.55493-101.55491 -77.10094 -10.26329
 Alpha  occ. eigenvalues --  -10.26329 -10.26326 -10.21418 -10.21418 -10.21417
 Alpha  occ. eigenvalues --  -10.21367 -10.21367 -10.21366 -10.21346 -10.21346
 Alpha  occ. eigenvalues --  -10.21344 -10.21313 -10.21312 -10.21311 -10.21249
 Alpha  occ. eigenvalues --  -10.21248 -10.21246  -9.47125  -9.47125  -9.47123
 Alpha  occ. eigenvalues --   -7.23520  -7.23520  -7.23517  -7.22555  -7.22555
 Alpha  occ. eigenvalues --   -7.22553  -7.22518  -7.22518  -7.22515  -6.56809
 Alpha  occ. eigenvalues --   -4.73069  -4.73069  -4.72564  -0.89964  -0.89791
 Alpha  occ. eigenvalues --   -0.89790  -0.85153  -0.84237  -0.84236  -0.76898
 Alpha  occ. eigenvalues --   -0.76780  -0.76779  -0.76742  -0.73907  -0.73905
 Alpha  occ. eigenvalues --   -0.65058  -0.63150  -0.62987  -0.62986  -0.60497
 Alpha  occ. eigenvalues --   -0.60496  -0.57615  -0.52431  -0.52430  -0.49746
 Alpha  occ. eigenvalues --   -0.48088  -0.47999  -0.47998  -0.47167  -0.47166
 Alpha  occ. eigenvalues --   -0.46321  -0.44340  -0.44246  -0.44245  -0.42725
 Alpha  occ. eigenvalues --   -0.42724  -0.40319  -0.40238  -0.40237  -0.39580
 Alpha  occ. eigenvalues --   -0.37219  -0.37218  -0.37129  -0.35190  -0.35187
 Alpha  occ. eigenvalues --   -0.34134  -0.33461  -0.33458  -0.31867  -0.31862
 Alpha  occ. eigenvalues --   -0.31861  -0.27683  -0.27413  -0.27143  -0.27141
 Alpha  occ. eigenvalues --   -0.25830  -0.25827  -0.22677
 Alpha virt. eigenvalues --   -0.03959  -0.03955  -0.03032  -0.01964  -0.01788
 Alpha virt. eigenvalues --   -0.01784   0.02242   0.02244   0.02402   0.05590
 Alpha virt. eigenvalues --    0.05598   0.10343   0.12154   0.12345   0.12346

 Mulliken charges:
               1
     1  C   -0.121693
     2  C   -0.164330
     3  C   -0.126995
     4  C   -0.174487
     5  C   -0.118696
     6  C   -0.096226
     7  Cl  -0.036309
     8  P    0.446514
     9  C   -0.108522
    10  C   -0.171992
    11  C   -0.113665
    12  C   -0.091264
    13  C   -0.125712
    14  C   -0.157414
    15  Cl  -0.029518
    16  C   -0.080111
    17  C   -0.157356
    18  C   -0.115250
    19  C   -0.063470
    20  C   -0.116954
    21  C   -0.147914
    22  Cl   0.016578
    23  H    0.151224
    24  H    0.151586
    25  H    0.130334
    26  H    0.146984
    27  H    0.137462
    28  H    0.153382
    29  H    0.151538
    30  H    0.140651
    31  H    0.161799
    32  H    0.170622
    33  H    0.174443
    34  H    0.184761
 Sum of Mulliken charges =  -0.00000

 Dipole moment (field-independent basis, Debye):
    X=             -3.3951    Y=             -2.4604    Z=              1.9731  Tot=              4.6340
 Quadrupole moment (field-independent basis, Debye-Ang):
   XX=           -167.8337   YY=           -167.2828   ZZ=           -145.0324
   XY=              8.9460   XZ=              0.1808   YZ=              1.0214

 Summary of Natural Population Analysis:

                                       Natural Population
                Natural  -----------------------------------------------
    Atom  No    Charge         Core      Valence    Rydberg      Total
 -----------------------------------------------------------------------
      C    1   -0.24994      1.99893     4.23499    0.01602     6.24994
      C    2   -0.22769      1.99899     4.21137    0.01733     6.22769
      C    3   -0.47419      1.99888     4.44923    0.02608     6.47419
      C    4   -0.22543      1.99901     4.21027    0.01614     6.22543
      C    5   -0.25139      1.99894     4.23645    0.01600     6.25139
      C    6   -0.08222      1.99854     4.06143    0.02225     6.08222
     Cl    7   -0.01085      9.99967     6.99080    0.02038    17.01085
      P    8    1.21210      9.99758     3.74047    0.04985    13.78790
      C    9   -0.44319      1.99887     4.42013    0.02419     6.44319
      C   10   -0.24799      1.99899     4.23157    0.01743     6.24799
      C   11   -0.23567      1.99893     4.22128    0.01546     6.23567
      C   12   -0.07233      1.99854     4.05157    0.02222     6.07233
      C   13   -0.26421      1.99894     4.24872    0.01655     6.26421
      C   14   -0.19826      1.99901     4.18361    0.01564     6.19826
     Cl   15   -0.00604      9.99967     6.98616    0.02021    17.00604
      C   16   -0.37766      1.99891     4.35382    0.02493     6.37766
      C   17   -0.19291      1.99902     4.17875    0.01515     6.19291
      C   18   -0.24477      1.99893     4.23051    0.01533     6.24477
      C   19   -0.01508      1.99855     3.99426    0.02227     6.01508
      C   20   -0.24147      1.99892     4.22727    0.01528     6.24147
      C   21   -0.19345      1.99900     4.17849    0.01597     6.19345
     Cl   22    0.02879      9.99967     6.95227    0.01928    16.97121
      H   23    0.25295      0.00000     0.74600    0.00105     0.74705
      H   24    0.24810      0.00000     0.75038    0.00152     0.75190
      H   25    0.23316      0.00000     0.76592    0.00092     0.76684
      H   26    0.25014      0.00000     0.74878    0.00108     0.74986
      H   27    0.24063      0.00000     0.75803    0.00133     0.75937
      H   28    0.25369      0.00000     0.74525    0.00105     0.74631
      H   29    0.25299      0.00000     0.74598    0.00103     0.74701
      H   30    0.23989      0.00000     0.75900    0.00111     0.76011
      H   31    0.25017      0.00000     0.74866    0.00117     0.74983
      H   32    0.26137      0.00000     0.73757    0.00106     0.73863
      H   33    0.26371      0.00000     0.73524    0.00105     0.73629
      H   34    0.26702      0.00000     0.73179    0.00118     0.73298
 =======================================================================
   * Total *   -0.00000     75.97648   109.56602    0.45749   186.00000

 Normal termination of Gaussian 16 at Sun Aug 23 03:30:06 2020.
