 Gaussian 16, Revision A.03,

 ---------------------------------
 # opt=CalcAll B3LYP/6-31G* scf=qc
 ---------------------------------

 -------------------
 Title Card Required
 -------------------
 Symbolic Z-matrix:
 Charge =  0 Multiplicity = 1

 SCF Done:  E(RB3LYP) =  -1029.60804651     a.u. after    9 cycles
 SCF Done:  E(RB3LYP) =  -1029.62147576     a.u. after   17 cycles
 SCF Done:  E(RB3LYP) =  -1029.62519264     a.u. after   19 cycles
 SCF Done:  E(RB3LYP) =  -1029.62644105     a.u. after   15 cycles
 SCF Done:  E(RB3LYP) =  -1029.62652646     a.u. after   13 cycles
 SCF Done:  E(RB3LYP) =  -1029.62652634     a.u. after    7 cycles
 SCF Done:  E(RB3LYP) =  -1029.62520263     a.u. after   14 cycles
 SCF Done:  E(RB3LYP) =  -1029.62615624     a.u. after   13 cycles
 SCF Done:  E(RB3LYP) =  -1029.62641831     a.u. after   15 cycles
 SCF Done:  E(RB3LYP) =  -1029.62649919     a.u. after   15 cycles
 SCF Done:  E(RB3LYP) =  -1029.62652631     a.u. after   11 cycles
 SCF Done:  E(RB3LYP) =  -1029.62652801     a.u. after    9 cycles
 SCF Done:  E(RB3LYP) =  -1029.62652761     a.u. after    3 cycles
 SCF Done:  E(RB3LYP) =  -1029.62652665     a.u. after    6 cycles
 SCF Done:  E(RB3LYP) =  -1029.62652661     a.u. after    9 cycles
 SCF Done:  E(RB3LYP) =  -1029.62652664     a.u. after    9 cycles
 SCF Done:  E(RB3LYP) =  -1029.62652677     a.u. after    7 cycles
 SCF Done:  E(RB3LYP) =  -1029.62652780     a.u. after    9 cycles
 Optimization completed.
    -- Stationary point found.
 Normal termination of Gaussian 16 at Sun Aug 23 17:40:26 2020.

 ----------------------------------------------------------------------
 # freq B3LYP/6-31G* scf=qc volume NMR pop=NPA density=current Geom=All
 Check Guess=Read
 ----------------------------------------------------------------------

 Structure from the checkpoint file:  "phosphine_9_conf62.chk"
 -------------------
 Title Card Required
 -------------------
 Charge =  0 Multiplicity = 1

 SCF Done:  E(RB3LYP) =  -1029.62652780     a.u. after    1 cycles

      1  C    Isotropic =    85.3649   Anisotropy =   118.2337

      2  C    Isotropic =    73.4483   Anisotropy =   124.2491

      3  C    Isotropic =    44.5587   Anisotropy =    90.9940

      4  O    Isotropic =    39.2906   Anisotropy =   299.8027

      5  C    Isotropic =    50.8649   Anisotropy =    98.7871

      6  P    Isotropic =   455.5726   Anisotropy =    31.0207

      7  C    Isotropic =    44.5097   Anisotropy =    90.7801

      8  C    Isotropic =    73.4562   Anisotropy =   123.8529

      9  C    Isotropic =    85.3430   Anisotropy =   118.5285

     10  C    Isotropic =    50.8399   Anisotropy =    98.6694

     11  O    Isotropic =    39.9355   Anisotropy =   298.0058

     12  C    Isotropic =    44.1501   Anisotropy =    85.3738

     13  C    Isotropic =    73.0709   Anisotropy =   130.3336

     14  C    Isotropic =    84.4981   Anisotropy =   119.2685

     15  C    Isotropic =    52.8185   Anisotropy =    98.4097

     16  O    Isotropic =    35.5717   Anisotropy =   287.9465

     17  H    Isotropic =    26.2132   Anisotropy =     2.5791

     18  H    Isotropic =    25.7070   Anisotropy =     4.9928

     19  H    Isotropic =    24.7778   Anisotropy =     4.1294

     20  H    Isotropic =    25.7024   Anisotropy =     5.0073

     21  H    Isotropic =    26.1930   Anisotropy =     2.5614

     22  H    Isotropic =    24.7541   Anisotropy =     4.1123

     23  H    Isotropic =    24.7571   Anisotropy =     6.4827

     24  H    Isotropic =    26.0018   Anisotropy =     2.2748

     25  H    Isotropic =    24.9910   Anisotropy =     3.5995

  Exact polarizability: 153.418  -0.521 151.702   1.634   1.311 138.662
 Approx polarizability: 210.916  -1.233 210.705   1.890   3.426 260.392

                      1                      2                      3
                      A                      A                      A
 Frequencies --     11.1872                41.7683                49.1587
 Red. masses --      4.5587                 4.7197                 4.8764
 Frc consts  --      0.0003                 0.0049                 0.0069
 IR Inten    --      0.3217                 0.1330                 0.7588

                      4                      5                      6
                      A                      A                      A
 Frequencies --     57.3363                59.5221                83.7003
 Red. masses --      5.6298                 5.5200                 5.7275
 Frc consts  --      0.0109                 0.0115                 0.0236
 IR Inten    --      0.3702                 0.0948                 0.6045

                      7                      8                      9
                      A                      A                      A
 Frequencies --    175.6394               215.9075               235.5431
 Red. masses --      5.7779                 6.1827                 5.6542
 Frc consts  --      0.1050                 0.1698                 0.1848
 IR Inten    --      0.0049                 0.3440                 1.1795

                     10                     11                     12
                      A                      A                      A
 Frequencies --    288.9701               296.0298               301.3443
 Red. masses --      6.9988                 5.8916                 5.7613
 Frc consts  --      0.3443                 0.3042                 0.3082
 IR Inten    --      4.5343                 7.3128                 4.7343

                     13                     14                     15
                      A                      A                      A
 Frequencies --    488.0302               492.0064               500.9788
 Red. masses --     14.5440                14.8495                13.2122
 Frc consts  --      2.0409                 2.1179                 1.9537
 IR Inten    --     58.6580                55.9054                21.3488

                     16                     17                     18
                      A                      A                      A
 Frequencies --    610.4919               610.5799               612.2751
 Red. masses --      3.2024                 3.2408                 3.2600
 Frc consts  --      0.7032                 0.7119                 0.7200
 IR Inten    --      6.8523                 4.4878                10.2307

                     19                     20                     21
                      A                      A                      A
 Frequencies --    644.6575               666.3019               673.7231
 Red. masses --      5.8956                 5.7963                 6.1934
 Frc consts  --      1.4436                 1.5161                 1.6563
 IR Inten    --      0.0769                 4.7498                 4.2346

                     22                     23                     24
                      A                      A                      A
 Frequencies --    755.7330               757.3237               757.9332
 Red. masses --      1.2898                 1.2881                 1.2876
 Frc consts  --      0.4340                 0.4353                 0.4358
 IR Inten    --     13.9147                57.6970                57.5361

                     25                     26                     27
                      A                      A                      A
 Frequencies --    825.6417               828.3657               829.5290
 Red. masses --      1.2510                 1.2483                 1.2515
 Frc consts  --      0.5025                 0.5047                 0.5074
 IR Inten    --      6.2381                 6.6538                11.8277

                     28                     29                     30
                      A                      A                      A
 Frequencies --    879.0323               879.2909               879.9655
 Red. masses --      1.3089                 1.3088                 1.3081
 Frc consts  --      0.5959                 0.5962                 0.5968
 IR Inten    --      0.6374                 1.1561                 0.9133

                     31                     32                     33
                      A                      A                      A
 Frequencies --    899.2608               900.2872               900.8340
 Red. masses --      6.2505                 6.3638                 6.2809
 Frc consts  --      2.9781                 3.0390                 3.0030
 IR Inten    --      5.5770                 1.1256                 5.5657

                     34                     35                     36
                      A                      A                      A
 Frequencies --    922.2832               923.3552               925.8597
 Red. masses --      4.7839                 4.7937                 4.6814
 Frc consts  --      2.3975                 2.4080                 2.3644
 IR Inten    --      5.2638                 7.8205                17.2710

                     37                     38                     39
                      A                      A                      A
 Frequencies --   1036.9918              1037.7879              1038.7506
 Red. masses --      1.4013                 1.4075                 1.4315
 Frc consts  --      0.8878                 0.8932                 0.9100
 IR Inten    --     42.9208                13.1278                41.6288

                     40                     41                     42
                      A                      A                      A
 Frequencies --   1100.6522              1101.4865              1104.4639
 Red. masses --      2.4140                 2.3687                 2.1853
 Frc consts  --      1.7230                 1.6933                 1.5706
 IR Inten    --      0.2417                 2.0418                 2.4147

                     43                     44                     45
                      A                      A                      A
 Frequencies --   1140.5500              1149.4889              1152.3738
 Red. masses --      5.5129                 5.2729                 6.0770
 Frc consts  --      4.2253                 4.1050                 4.7548
 IR Inten    --      9.0192                21.9418                12.7525

                     46                     47                     48
                      A                      A                      A
 Frequencies --   1191.6546              1192.2976              1198.2496
 Red. masses --      2.1670                 2.1249                 2.1845
 Frc consts  --      1.8130                 1.7798                 1.8480
 IR Inten    --      5.2277                 8.4091                 4.6442

                     49                     50                     51
                      A                      A                      A
 Frequencies --   1247.4781              1249.9658              1256.3677
 Red. masses --      1.6515                 1.6252                 1.6625
 Frc consts  --      1.5142                 1.4960                 1.5461
 IR Inten    --      7.5005                 1.2282                20.3488

                     52                     53                     54
                      A                      A                      A
 Frequencies --   1419.2971              1420.1132              1422.7199
 Red. masses --      2.5032                 2.5507                 2.6280
 Frc consts  --      2.9710                 3.0308                 3.1341
 IR Inten    --      0.4193                 1.2411                10.1581

                     55                     56                     57
                      A                      A                      A
 Frequencies --   1487.1475              1491.3092              1502.2328
 Red. masses --      5.2789                 5.5408                 5.4808
 Frc consts  --      6.8787                 7.2603                 7.2873
 IR Inten    --     21.3953                 0.8737                18.6154

                     58                     59                     60
                      A                      A                      A
 Frequencies --   1606.8267              1608.2651              1611.5878
 Red. masses --      4.8542                 4.7848                 4.9094
 Frc consts  --      7.3843                 7.2917                 7.5126
 IR Inten    --      2.8493                 2.8485                 4.1411

                     61                     62                     63
                      A                      A                      A
 Frequencies --   3263.9659              3264.3339              3264.5375
 Red. masses --      1.0907                 1.0903                 1.0903
 Frc consts  --      6.8460                 6.8451                 6.8460
 IR Inten    --      4.6173                 3.1153                 2.6470

                     64                     65                     66
                      A                      A                      A
 Frequencies --   3275.7991              3276.0098              3288.6179
 Red. masses --      1.0967                 1.0968                 1.0966
 Frc consts  --      6.9341                 6.9353                 6.9876
 IR Inten    --      1.0742                 1.5875                 0.3419

                     67                     68                     69
                      A                      A                      A
 Frequencies --   3296.4741              3296.6392              3297.8294
 Red. masses --      1.1055                 1.1055                 1.1050
 Frc consts  --      7.0777                 7.0786                 7.0803
 IR Inten    --      2.6585                 2.7175                 2.5396

 - Thermochemistry -
 -------------------
 Temperature   298.150 Kelvin.  Pressure   1.00000 Atm.
 Atom     1 has atomic number  6 and mass  12.00000

 Molecular mass:   232.02893 amu.
 Principal axes and moments of inertia in atomic units:
                           1         2         3
     Eigenvalues --  3528.293713711.990785769.21908
           X            0.99992  -0.00731   0.01046
           Y            0.00730   0.99997   0.00145
           Z           -0.01047  -0.00138   0.99994
 This molecule is an asymmetric top.
 Rotational symmetry number  1.
 Warning -- assumption of classical behavior for rotation
           may cause significant error
 Rotational temperatures (Kelvin)      0.02455     0.02333     0.01501
 Rotational constants (GHZ):           0.51151     0.48619     0.31282
 Zero-point vibrational energy     480133.9 (Joules/Mol)
                                  114.75475 (Kcal/Mol)
 Warning -- explicit consideration of  18 degrees of freedom as
           vibrations may cause significant error
 Vibrational temperatures:     16.10    60.10    70.73    82.49    85.64
          (Kelvin)            120.43   252.71   310.64   338.89   415.76
                              425.92   433.57   702.17   707.89   720.80
                              878.36   878.49   880.93   927.52   958.66
                              969.34  1087.33  1089.62  1090.50  1187.91
                             1191.83  1193.51  1264.73  1265.10  1266.07
                             1293.84  1295.31  1296.10  1326.96  1328.50
                             1332.11  1492.00  1493.15  1494.53  1583.59
                             1584.79  1589.08  1641.00  1653.86  1658.01
                             1714.53  1715.45  1724.01  1794.84  1798.42
                             1807.63  2042.05  2043.23  2046.98  2139.67
                             2145.66  2161.38  2311.87  2313.93  2318.72
                             4696.12  4696.65  4696.94  4713.14  4713.45
                             4731.59  4742.89  4743.13  4744.84

 Zero-point correction=                           0.182873 (Hartree/Particle)
 Thermal correction to Energy=                    0.196513
 Thermal correction to Enthalpy=                  0.197457
 Thermal correction to Gibbs Free Energy=         0.138574
 Sum of electronic and zero-point Energies=          -1029.443654
 Sum of electronic and thermal Energies=             -1029.430015
 Sum of electronic and thermal Enthalpies=           -1029.429071
 Sum of electronic and thermal Free Energies=        -1029.487954

                     E (Thermal)             CV                S
                      KCal/Mol        Cal/Mol-Kelvin    Cal/Mol-Kelvin
 Total                  123.314             50.749            123.930
 Electronic               0.000              0.000              0.000
 Translational            0.889              2.981             42.227
 Rotational               0.889              2.981             32.691
 Vibrational            121.536             44.787             49.012
 Vibration     1          0.593              1.987              7.788
 Vibration     2          0.594              1.980              5.173
 Vibration     3          0.595              1.978              4.851
 Vibration     4          0.596              1.975              4.547
 Vibration     5          0.597              1.974              4.473
 Vibration     6          0.601              1.960              3.802
 Vibration     7          0.628              1.872              2.374
 Vibration     8          0.645              1.817              1.993
 Vibration     9          0.655              1.786              1.836
 Vibration    10          0.686              1.694              1.480
 Vibration    11          0.690              1.681              1.439
 Vibration    12          0.693              1.671              1.409
 Vibration    13          0.844              1.277              0.689
 Vibration    14          0.848              1.268              0.678
 Vibration    15          0.856              1.248              0.656
 Vibration    16          0.970              1.010              0.432
 Vibration    17          0.970              1.009              0.432
 Vibration    18          0.972              1.006              0.429

                           ! Non-Optimized Parameters !
 Normal termination of Gaussian 16 at Sun Aug 23 17:46:50 2020.
 Gaussian 16:  ES64L-G16RevA.03 25-Dec-2016

 ----------------------------------------------------------------------
 # TD(NStates=10, Root=1) B3LYP/6-31G* scf=qc volume pop=NPA density=cu
 rrent Geom=AllCheck Guess=Read
 ----------------------------------------------------------------------

 Structure from the checkpoint file:  "phosphine_9_conf63.chk"
 -------------------
 Title Card Required
 -------------------
 Charge =  0 Multiplicity = 1

                         Standard orientation:
 ---------------------------------------------------------------------
 Center     Atomic      Atomic             Coordinates (Angstroms)
 Number     Number       Type             X           Y           Z
 ---------------------------------------------------------------------
      1          6           0       -1.655120   -3.481646   -0.008310
      2          6           0       -1.204553   -2.594428   -1.035751
      3          6           0       -0.688742   -1.487979   -0.413765
      4          8           0       -0.797365   -1.646834    0.950158
      5          6           0       -1.381086   -2.853978    1.169324
      6         15           0        0.046668    0.002144   -1.153896
      7          6           0       -0.956510    1.334332   -0.428330
      8          6           0       -1.653394    2.329294   -1.061611
      9          6           0       -2.274473    3.120291   -0.044419
     10          6           0       -1.912540    2.552161    1.139459
     11          8           0       -1.116656    1.469959    0.933567
     12          6           0        1.605229    0.159477   -0.216759
     13          6           0        1.964383    0.273619    1.100360
     14          6           0        3.390165    0.360050    1.137502
     15          6           0        3.804419    0.291768   -0.159777
     16          8           0        2.743846    0.171290   -0.997024
     17          1           0       -2.116552   -4.451694   -0.130162
     18          1           0       -1.252332   -2.751029   -2.104630
     19          1           0       -1.531513   -3.119873    2.205277
     20          1           0       -1.711050    2.474599   -2.131585
     21          1           0       -2.901882    3.990640   -0.177044
     22          1           0       -2.127842    2.785102    2.171871
     23          1           0        1.280565    0.292836    1.936320
     24          1           0        4.020613    0.459386    2.010482
     25          1           0        4.774710    0.314777   -0.633231
 ---------------------------------------------------------------------

 SCF Done:  E(RB3LYP) =  -1029.62652780     a.u. after    1 cycles

 Excitation energies and oscillator strengths:

 Excited State   1:      Singlet-A      4.8543 eV  255.41 nm  f=0.0710  <S**2>=0.000
      59 -> 61         0.18213
      60 -> 61         0.67535
 This state for optimization and/or second-order correction.
 Total Energy, E(TD-HF/TD-DFT) =  -1029.44813376
 Copying the excited state density for this state as the 1-particle RhoCI density.

 Excited State   2:      Singlet-A      4.9666 eV  249.63 nm  f=0.1363  <S**2>=0.000
      58 -> 61         0.13041
      59 -> 62        -0.13520
      60 -> 62         0.67639

 Excited State   3:      Singlet-A      5.2167 eV  237.67 nm  f=0.0255  <S**2>=0.000
      58 -> 62        -0.40587
      59 -> 61         0.56317
      60 -> 61        -0.10266

 Excited State   4:      Singlet-A      5.3754 eV  230.65 nm  f=0.1869  <S**2>=0.000
      58 -> 61        -0.41459
      59 -> 62         0.52750
      60 -> 62         0.17740

 Excited State   5:      Singlet-A      5.4716 eV  226.60 nm  f=0.2714  <S**2>=0.000
      58 -> 62         0.56185
      59 -> 61         0.37279
      60 -> 61        -0.17015

 Excited State   6:      Singlet-A      5.5820 eV  222.11 nm  f=0.0208  <S**2>=0.000
      57 -> 61         0.68541
      58 -> 61         0.10216

 Excited State   7:      Singlet-A      5.6141 eV  220.85 nm  f=0.0208  <S**2>=0.000
      57 -> 62         0.67329
      58 -> 61         0.15175

 Excited State   8:      Singlet-A      5.6676 eV  218.76 nm  f=0.0364  <S**2>=0.000
      57 -> 61        -0.13141
      57 -> 62        -0.17367
      58 -> 61         0.44819
      59 -> 62         0.34109
      60 -> 63        -0.34907

 Excited State   9:      Singlet-A      6.3447 eV  195.41 nm  f=0.0605  <S**2>=0.000
      56 -> 61         0.11281
      56 -> 62        -0.18107
      58 -> 61         0.23838
      59 -> 62         0.23838
      60 -> 63         0.54989
      60 -> 64        -0.10672

 Excited State  10:      Singlet-A      6.3621 eV  194.88 nm  f=0.0110  <S**2>=0.000
      56 -> 61         0.67515
      60 -> 65        -0.10086

 The electronic state is 1-A.
 Alpha  occ. eigenvalues --  -77.09959 -19.21368 -19.21281 -19.21095 -10.23931
 Alpha  occ. eigenvalues --  -10.23872 -10.23452 -10.23410 -10.23336 -10.23007
 Alpha  occ. eigenvalues --  -10.19085 -10.19037 -10.18804 -10.18746 -10.18438
 Alpha  occ. eigenvalues --  -10.18393  -6.56607  -4.72875  -4.72864  -4.72379
 Alpha  occ. eigenvalues --   -1.10534  -1.10306  -1.10148  -0.79848  -0.79674
 Alpha  occ. eigenvalues --   -0.79331  -0.77197  -0.73722  -0.73489  -0.64604
 Alpha  occ. eigenvalues --   -0.59959  -0.59447  -0.59148  -0.55943  -0.55569
 Alpha  occ. eigenvalues --   -0.54614  -0.53017  -0.52812  -0.48845  -0.45157
 Alpha  occ. eigenvalues --   -0.44892  -0.43794  -0.43305  -0.42986  -0.41515
 Alpha  occ. eigenvalues --   -0.40355  -0.40284  -0.39581  -0.38687  -0.38364
 Alpha  occ. eigenvalues --   -0.37095  -0.35920  -0.35309  -0.27898  -0.27711
 Alpha  occ. eigenvalues --   -0.27269  -0.25525  -0.23604  -0.23301  -0.21466
 Alpha virt. eigenvalues --   -0.01377  -0.01147   0.02810   0.05765   0.06515
 Alpha virt. eigenvalues --    0.07616   0.08239   0.09393   0.10079   0.12441
 Alpha virt. eigenvalues --    0.13175   0.13332   0.13856   0.14937   0.15884

 Mulliken charges:
               1
     1  C   -0.174615
     2  C   -0.196040
     3  C    0.080433
     4  O   -0.431356
     5  C    0.062460
     6  P    0.272101
     7  C    0.073441
     8  C   -0.198002
     9  C   -0.175444
    10  C    0.056337
    11  O   -0.436970
    12  C    0.185018
    13  C   -0.126165
    14  C   -0.168261
    15  C    0.153887
    16  O   -0.386369
    17  H    0.128992
    18  H    0.132835
    19  H    0.137175
    20  H    0.128976
    21  H    0.125505
    22  H    0.132978
    23  H    0.223975
    24  H    0.187911
    25  H    0.211199
 Sum of Mulliken charges =   0.00000

 Dipole moment (field-independent basis, Debye):
    X=              6.9053    Y=              0.3363    Z=              2.3868  Tot=              7.3139
 Quadrupole moment (field-independent basis, Debye-Ang):
   XX=            -73.9966   YY=            -97.1875   ZZ=            -93.2947
   XY=              2.6501   XZ=              3.0928   YZ=              0.4808

 Summary of Natural Population Analysis:

                                       Natural Population
                Natural  -----------------------------------------------
    Atom  No    Charge         Core      Valence    Rydberg      Total
 -----------------------------------------------------------------------
      C    1   -0.32848      1.99908     4.31628    0.01311     6.32848
      C    2   -0.32215      1.99892     4.30802    0.01521     6.32215
      C    3   -0.10671      1.99885     4.07101    0.03685     6.10671
      O    4   -0.48825      1.99974     6.47402    0.01449     8.48825
      C    5    0.07440      1.99905     3.90114    0.02541     5.92560
      P    6    0.80686      9.99805     4.12927    0.06583    14.19314
      C    7   -0.12145      1.99885     4.08599    0.03661     6.12145
      C    8   -0.32570      1.99893     4.31145    0.01532     6.32570
      C    9   -0.33120      1.99908     4.31898    0.01314     6.33120
      C   10    0.06488      1.99905     3.91056    0.02551     5.93512
      O   11   -0.49366      1.99974     6.47945    0.01447     8.49366
      C   12    0.13513      1.99899     3.82704    0.03884     5.86487
      C   13   -0.23733      1.99897     4.22257    0.01579     6.23733
      C   14   -0.29921      1.99912     4.28697    0.01312     6.29921
      C   15    0.23778      1.99907     3.74081    0.02234     5.76222
      O   16   -0.45709      1.99975     6.43846    0.01887     8.45709
      H   17    0.24057      0.00000     0.75899    0.00044     0.75943
      H   18    0.24355      0.00000     0.75593    0.00052     0.75645
      H   19    0.21423      0.00000     0.78517    0.00060     0.78577
      H   20    0.24163      0.00000     0.75787    0.00050     0.75837
      H   21    0.23905      0.00000     0.76051    0.00044     0.76095
      H   22    0.21239      0.00000     0.78703    0.00058     0.78761
      H   23    0.28917      0.00000     0.70999    0.00084     0.71083
      H   24    0.26668      0.00000     0.73294    0.00038     0.73332
      H   25    0.24491      0.00000     0.75484    0.00025     0.75509
 =======================================================================
   * Total *    0.00000     39.98524    79.62530    0.38946   120.00000

 Normal termination of Gaussian 16 at Sun Aug 23 17:55:24 2020.
