 Gaussian 16, Revision A.03,

 ---------------------------------
 # opt=CalcAll B3LYP/6-31G* scf=qc
 ---------------------------------

 -------------------
 Title Card Required
 -------------------
 Symbolic Z-matrix:
 Charge =  0 Multiplicity = 1

 SCF Done:  E(RB3LYP) =  -1036.22854550     a.u. after    8 cycles
 SCF Done:  E(RB3LYP) =  -1036.25873740     a.u. after   17 cycles
 SCF Done:  E(RB3LYP) =  -1036.27004984     a.u. after   15 cycles
 SCF Done:  E(RB3LYP) =  -1036.28732224     a.u. after   17 cycles
 SCF Done:  E(RB3LYP) =  -1036.29457141     a.u. after   17 cycles
 SCF Done:  E(RB3LYP) =  -1036.29659095     a.u. after   13 cycles
 SCF Done:  E(RB3LYP) =  -1036.29773179     a.u. after   17 cycles
 SCF Done:  E(RB3LYP) =  -1036.29812580     a.u. after   15 cycles
 SCF Done:  E(RB3LYP) =  -1036.29818880     a.u. after   15 cycles
 SCF Done:  E(RB3LYP) =  -1036.29821910     a.u. after    5 cycles
 SCF Done:  E(RB3LYP) =  -1036.29823120     a.u. after    5 cycles
 SCF Done:  E(RB3LYP) =  -1036.29823710     a.u. after    5 cycles
 SCF Done:  E(RB3LYP) =  -1036.29823251     a.u. after    4 cycles
 SCF Done:  E(RB3LYP) =  -1036.29823559     a.u. after    4 cycles
 SCF Done:  E(RB3LYP) =  -1036.29823957     a.u. after    5 cycles
 SCF Done:  E(RB3LYP) =  -1036.29823733     a.u. after    2 cycles
 SCF Done:  E(RB3LYP) =  -1036.29822919     a.u. after    2 cycles
 SCF Done:  E(RB3LYP) =  -1036.29823952     a.u. after    2 cycles
 Optimization completed.
    -- Stationary point found.
 Normal termination of Gaussian 16 at Sun Aug 23 08:24:32 2020.

 ----------------------------------------------------------------------
 # freq B3LYP/6-31G* scf=qc volume NMR pop=NPA density=current Geom=All
 Check Guess=Read
 ----------------------------------------------------------------------

 Structure from the checkpoint file:  "phosphine_1_conf182.chk"
 -------------------
 Title Card Required
 -------------------
 Charge =  0 Multiplicity = 1

 SCF Done:  E(RB3LYP) =  -1036.29823952     a.u. after    1 cycles

      1  C    Isotropic =    68.1569   Anisotropy =   167.3093

      2  C    Isotropic =    68.6739   Anisotropy =   163.8926

      3  C    Isotropic =    62.5900   Anisotropy =   174.0507

      4  C    Isotropic =    56.1285   Anisotropy =   179.4330

      5  C    Isotropic =    61.0186   Anisotropy =   164.1396

      6  C    Isotropic =    68.7310   Anisotropy =   164.1266

      7  P    Isotropic =   361.6462   Anisotropy =    40.0094

      8  C    Isotropic =    56.1277   Anisotropy =   179.4159

      9  C    Isotropic =    61.0131   Anisotropy =   164.1251

     10  C    Isotropic =    68.7303   Anisotropy =   164.1366

     11  C    Isotropic =    68.1601   Anisotropy =   167.3246

     12  C    Isotropic =    68.6783   Anisotropy =   163.8856

     13  C    Isotropic =    62.5848   Anisotropy =   174.0444

     14  C    Isotropic =    56.1270   Anisotropy =   179.4340

     15  C    Isotropic =    61.0049   Anisotropy =   164.1227

     16  C    Isotropic =    68.7276   Anisotropy =   164.1386

     17  C    Isotropic =    68.1665   Anisotropy =   167.3193

     18  C    Isotropic =    68.6739   Anisotropy =   163.8861

     19  C    Isotropic =    62.5780   Anisotropy =   174.0461

     20  H    Isotropic =    25.0212   Anisotropy =     3.6406

     21  H    Isotropic =    25.0476   Anisotropy =     6.0871

     22  H    Isotropic =    25.4007   Anisotropy =    12.2294

     23  H    Isotropic =    24.6116   Anisotropy =     9.2543

     24  H    Isotropic =    24.9277   Anisotropy =     4.5872

     25  H    Isotropic =    24.6126   Anisotropy =     9.2520

     26  H    Isotropic =    24.9263   Anisotropy =     4.5896

     27  H    Isotropic =    25.0210   Anisotropy =     3.6411

     28  H    Isotropic =    25.0482   Anisotropy =     6.0855

     29  H    Isotropic =    25.4012   Anisotropy =    12.2259

     30  H    Isotropic =    24.6117   Anisotropy =     9.2529

     31  H    Isotropic =    24.9265   Anisotropy =     4.5888

     32  H    Isotropic =    25.0207   Anisotropy =     3.6405

     33  H    Isotropic =    25.0482   Anisotropy =     6.0857

     34  H    Isotropic =    25.3997   Anisotropy =    12.2261

  Exact polarizability: 224.156  -0.007 224.135   0.008   0.006 165.032
 Approx polarizability: 330.934  -0.018 330.895   0.018   0.015 308.007

                      1                      2                      3
                      A                      A                      A
 Frequencies --     24.4691                25.3579                39.4114
 Red. masses --      3.8013                 3.8022                 3.6902
 Frc consts  --      0.0013                 0.0014                 0.0034
 IR Inten    --      0.2817                 0.2812                 0.0021

                      4                      5                      6
                      A                      A                      A
 Frequencies --     53.4450                53.5625                70.8082
 Red. masses --      5.2479                 5.2447                 5.1679
 Frc consts  --      0.0088                 0.0089                 0.0153
 IR Inten    --      0.0870                 0.0868                 0.3103

                      7                      8                      9
                      A                      A                      A
 Frequencies --    181.7199               202.4753               202.7966
 Red. masses --      4.5614                 4.6436                 4.6410
 Frc consts  --      0.0887                 0.1122                 0.1125
 IR Inten    --      0.3535                 1.1315                 1.1305

                     10                     11                     12
                      A                      A                      A
 Frequencies --    245.5454               259.7177               260.0191
 Red. masses --      5.7387                 4.7190                 4.7250
 Frc consts  --      0.2039                 0.1875                 0.1882
 IR Inten    --      0.4822                 0.2287                 0.2266

                     13                     14                     15
                      A                      A                      A
 Frequencies --    408.9390               409.0148               412.4447
 Red. masses --      3.0800                 3.0818                 3.6389
 Frc consts  --      0.3035                 0.3038                 0.3647
 IR Inten    --      1.9606                 1.9809                 0.1704

                     16                     17                     18
                      A                      A                      A
 Frequencies --    417.1364               429.5033               429.6681
 Red. masses --      4.5474                 7.3075                 7.3086
 Frc consts  --      0.4662                 0.7942                 0.7950
 IR Inten    --      0.5540                 7.6996                 7.6999

                     19                     20                     21
                      A                      A                      A
 Frequencies --    509.5641               509.6496               516.5203
 Red. masses --      4.2483                 4.2467                 4.5890
 Frc consts  --      0.6499                 0.6499                 0.7213
 IR Inten    --     26.0997                26.0872                11.9473

                     22                     23                     24
                      A                      A                      A
 Frequencies --    632.7435               632.7454               633.3858
 Red. masses --      6.4274                 6.4272                 6.4371
 Frc consts  --      1.5161                 1.5161                 1.5215
 IR Inten    --      0.1806                 0.1802                 0.0166

                     25                     26                     27
                      A                      A                      A
 Frequencies --    691.8267               705.1952               705.2636
 Red. masses --      6.5804                 5.7598                 5.7521
 Frc consts  --      1.8556                 1.6876                 1.6857
 IR Inten    --      0.7951                 1.1151                 1.0791

                     28                     29                     30
                      A                      A                      A
 Frequencies --    712.3993               712.4499               713.4439
 Red. masses --      2.1962                 2.1968                 2.1360
 Frc consts  --      0.6567                 0.6570                 0.6406
 IR Inten    --     26.4474                26.4315                16.6211

                     31                     32                     33
                      A                      A                      A
 Frequencies --    761.4427               762.9203               762.9426
 Red. masses --      1.6149                 1.6493                 1.6474
 Frc consts  --      0.5517                 0.5656                 0.5650
 IR Inten    --     19.2257                24.9049                24.9135

                     34                     35                     36
                      A                      A                      A
 Frequencies --    866.3142               866.3641               868.9149
 Red. masses --      1.2476                 1.2476                 1.2461
 Frc consts  --      0.5517                 0.5517                 0.5543
 IR Inten    --      0.2199                 0.2209                 0.1304

                     37                     38                     39
                      A                      A                      A
 Frequencies --    933.0462               933.0901               934.3789
 Red. masses --      1.3439                 1.3438                 1.3382
 Frc consts  --      0.6893                 0.6894                 0.6883
 IR Inten    --      1.2582                 1.2722                 0.0304

                     40                     41                     42
                      A                      A                      A
 Frequencies --    975.9413               975.9794               977.8074
 Red. masses --      1.3610                 1.3610                 1.3552
 Frc consts  --      0.7638                 0.7638                 0.7634
 IR Inten    --      0.0144                 0.0167                 0.1380

                     43                     44                     45
                      A                      A                      A
 Frequencies --   1000.4218              1000.4427              1001.1861
 Red. masses --      1.2540                 1.2541                 1.2523
 Frc consts  --      0.7395                 0.7395                 0.7396
 IR Inten    --      0.0793                 0.0829                 0.0002

                     46                     47                     48
                      A                      A                      A
 Frequencies --   1015.3623              1015.3848              1015.7585
 Red. masses --      6.3137                 6.3108                 6.3107
 Frc consts  --      3.8351                 3.8335                 3.8363
 IR Inten    --      4.3516                 4.3722                 0.0557

                     49                     50                     51
                      A                      A                      A
 Frequencies --   1052.7155              1052.7823              1052.9401
 Red. masses --      3.3105                 3.3205                 3.2543
 Frc consts  --      2.1616                 2.1683                 2.1257
 IR Inten    --      2.0922                 2.0632                 0.0485

                     52                     53                     54
                      A                      A                      A
 Frequencies --   1107.7687              1108.0915              1109.4465
 Red. masses --      1.8976                 1.8780                 1.6550
 Frc consts  --      1.3720                 1.3586                 1.2002
 IR Inten    --      4.5112                 4.1756                 2.9649

                     55                     56                     57
                      A                      A                      A
 Frequencies --   1110.8685              1110.9366              1115.8962
 Red. masses --      2.1724                 2.1972                 2.6108
 Frc consts  --      1.5795                 1.5977                 1.9154
 IR Inten    --      9.1539                 9.4429                 1.1243

                     58                     59                     60
                      A                      A                      A
 Frequencies --   1193.5429              1193.9603              1194.0184
 Red. masses --      1.1034                 1.1001                 1.1001
 Frc consts  --      0.9261                 0.9240                 0.9241
 IR Inten    --      0.0017                 0.1325                 0.1273

                     61                     62                     63
                      A                      A                      A
 Frequencies --   1219.1635              1219.5886              1220.7862
 Red. masses --      1.1475                 1.1478                 1.1473
 Frc consts  --      1.0049                 1.0059                 1.0074
 IR Inten    --      5.9566                 5.9358                 0.5520

                     64                     65                     66
                      A                      A                      A
 Frequencies --   1325.0570              1328.7553              1328.9604
 Red. masses --      3.4847                 3.4812                 3.5347
 Frc consts  --      3.6048                 3.6214                 3.6781
 IR Inten    --      2.6406                 2.4352                 2.4481

                     67                     68                     69
                      A                      A                      A
 Frequencies --   1365.0697              1365.3747              1365.7562
 Red. masses --      1.6615                 1.6502                 1.6377
 Frc consts  --      1.8242                 1.8125                 1.7998
 IR Inten    --      0.5638                 1.1986                 1.6340

                     70                     71                     72
                      A                      A                      A
 Frequencies --   1480.5627              1481.0306              1481.0721
 Red. masses --      2.1104                 2.1154                 2.1157
 Frc consts  --      2.7256                 2.7338                 2.7343
 IR Inten    --     16.6832                 6.5920                 6.6122

                     73                     74                     75
                      A                      A                      A
 Frequencies --   1531.1060              1531.5853              1531.7611
 Red. masses --      2.0156                 1.9988                 1.9969
 Frc consts  --      2.7840                 2.7625                 2.7605
 IR Inten    --      2.0436                10.1414                10.1252

                     76                     77                     78
                      A                      A                      A
 Frequencies --   1630.2015              1630.4791              1630.5029
 Red. masses --      5.1016                 5.1126                 5.1120
 Frc consts  --      7.9880                 8.0080                 8.0073
 IR Inten    --      0.3972                 0.0444                 0.0455

                     79                     80                     81
                      A                      A                      A
 Frequencies --   1646.1803              1646.2173              1647.9914
 Red. masses --      5.2714                 5.2677                 5.2814
 Frc consts  --      8.4165                 8.4110                 8.4511
 IR Inten    --      3.5088                 3.5233                 0.3194

                     82                     83                     84
                      A                      A                      A
 Frequencies --   3176.1358              3176.1479              3176.1844
 Red. masses --      1.0854                 1.0853                 1.0853
 Frc consts  --      6.4510                 6.4508                 6.4510
 IR Inten    --      2.4049                 1.7146                 1.8836

                     85                     86                     87
                      A                      A                      A
 Frequencies --   3182.6851              3182.7129              3182.7926
 Red. masses --      1.0875                 1.0875                 1.0876
 Frc consts  --      6.4903                 6.4905                 6.4913
 IR Inten    --      0.7770                 0.6954                 0.2199

                     88                     89                     90
                      A                      A                      A
 Frequencies --   3192.8714              3192.8996              3193.0218
 Red. masses --      1.0916                 1.0916                 1.0917
 Frc consts  --      6.5568                 6.5570                 6.5580
 IR Inten    --     10.3403                11.2583                46.5560

                     91                     92                     93
                      A                      A                      A
 Frequencies --   3203.9172              3203.9855              3204.3575
 Red. masses --      1.0941                 1.0941                 1.0942
 Frc consts  --      6.6170                 6.6177                 6.6198
 IR Inten    --     40.9756                41.4740                 4.9832

                     94                     95                     96
                      A                      A                      A
 Frequencies --   3210.0743              3210.1851              3211.0437
 Red. masses --      1.0957                 1.0956                 1.0956
 Frc consts  --      6.6523                 6.6523                 6.6557
 IR Inten    --     20.2418                19.7186                16.3030

 - Thermochemistry -
 -------------------
 Temperature   298.150 Kelvin.  Pressure   1.00000 Atm.
 Atom     1 has atomic number  6 and mass  12.00000

 Molecular mass:   262.09114 amu.
 Principal axes and moments of inertia in atomic units:
                           1         2         3
     Eigenvalues --  5162.907425163.271528681.29743
           X            0.99974  -0.02265   0.00000
           Y            0.02265   0.99974   0.00000
           Z           -0.00000  -0.00000   1.00000
 This molecule is an asymmetric top.
 Rotational symmetry number  1.
 Warning -- assumption of classical behavior for rotation
           may cause significant error
 Rotational temperatures (Kelvin)      0.01678     0.01678     0.00998
 Rotational constants (GHZ):           0.34956     0.34953     0.20789
 Zero-point vibrational energy     720021.0 (Joules/Mol)
                                  172.08914 (Kcal/Mol)
 Warning -- explicit consideration of  21 degrees of freedom as
           vibrations may cause significant error
 Vibrational temperatures:     35.21    36.48    56.70    76.90    77.06
          (Kelvin)            101.88   261.45   291.32   291.78   353.29
                              373.68   374.11   588.37   588.48   593.42
                              600.17   617.96   618.20   733.15   733.27
                              743.16   910.38   910.38   911.30   995.38
                             1014.62  1014.72  1024.98  1025.06  1026.49
                             1095.55  1097.67  1097.70  1246.43  1246.50
                             1250.17  1342.45  1342.51  1344.36  1404.16
                             1404.22  1406.85  1439.38  1439.41  1440.48
                             1460.88  1460.91  1461.45  1514.62  1514.72
                             1514.95  1593.83  1594.30  1596.25  1598.29
                             1598.39  1605.53  1717.24  1717.84  1717.93
                             1754.10  1754.72  1756.44  1906.46  1911.78
                             1912.08  1964.03  1964.47  1965.02  2130.20
                             2130.87  2130.93  2202.92  2203.61  2203.86
                             2345.50  2345.90  2345.93  2368.49  2368.54
                             2371.09  4569.75  4569.77  4569.82  4579.17
                             4579.21  4579.33  4593.83  4593.87  4594.05
                             4609.72  4609.82  4610.36  4618.58  4618.74
                             4619.98

 Zero-point correction=                           0.274241 (Hartree/Particle)
 Thermal correction to Energy=                    0.290151
 Thermal correction to Enthalpy=                  0.291095
 Thermal correction to Gibbs Free Energy=         0.227928
 Sum of electronic and zero-point Energies=          -1036.023998
 Sum of electronic and thermal Energies=             -1036.008089
 Sum of electronic and thermal Enthalpies=           -1036.007145
 Sum of electronic and thermal Free Energies=        -1036.070311

                     E (Thermal)             CV                S
                      KCal/Mol        Cal/Mol-Kelvin    Cal/Mol-Kelvin
 Total                  182.072             62.530            132.945
 Electronic               0.000              0.000              0.000
 Translational            0.889              2.981             42.590
 Rotational               0.889              2.981             33.803
 Vibrational            180.295             56.568             56.552
 Vibration     1          0.593              1.985              6.234
 Vibration     2          0.593              1.985              6.163
 Vibration     3          0.594              1.981              5.288
 Vibration     4          0.596              1.976              4.686
 Vibration     5          0.596              1.976              4.681
 Vibration     6          0.598              1.968              4.131
 Vibration     7          0.630              1.865              2.311
 Vibration     8          0.639              1.836              2.110
 Vibration     9          0.639              1.836              2.108
 Vibration    10          0.660              1.770              1.762
 Vibration    11          0.668              1.746              1.664
 Vibration    12          0.668              1.746              1.662
 Vibration    13          0.773              1.451              0.930
 Vibration    14          0.773              1.451              0.930
 Vibration    15          0.776              1.443              0.918
 Vibration    16          0.780              1.433              0.902
 Vibration    17          0.791              1.406              0.860
 Vibration    18          0.791              1.406              0.860
 Vibration    19          0.865              1.229              0.635
 Vibration    20          0.865              1.229              0.634
 Vibration    21          0.872              1.213              0.618

                           ! Non-Optimized Parameters !
 Normal termination of Gaussian 16 at Sun Aug 23 08:33:37 2020.
 Gaussian 16:  ES64L-G16RevA.03 25-Dec-2016

 ----------------------------------------------------------------------
 # TD(NStates=10, Root=1) B3LYP/6-31G* scf=qc volume pop=NPA density=cu
 rrent Geom=AllCheck Guess=Read
 ----------------------------------------------------------------------

 Structure from the checkpoint file:  "phosphine_1_conf183.chk"
 -------------------
 Title Card Required
 -------------------
 Charge =  0 Multiplicity = 1

                         Standard orientation:
 ---------------------------------------------------------------------
 Center     Atomic      Atomic             Coordinates (Angstroms)
 Number     Number       Type             X           Y           Z
 ---------------------------------------------------------------------
      1          6           0        3.061097    2.992198    0.651453
      2          6           0        1.826108    2.822155    1.279105
      3          6           0        0.888650    1.927363    0.758376
      4          6           0        1.171334    1.191456   -0.402508
      5          6           0        2.412823    1.383110   -1.032335
      6          6           0        3.353743    2.267913   -0.506125
      7         15           0       -0.000029    0.000025   -1.206287
      8          6           0        0.446138   -1.610081   -0.402460
      9          6           0       -0.008313   -2.781117   -1.032421
     10          6           0        0.287543   -4.038348   -0.506169
     11          6           0        1.060838   -4.146964    0.651601
     12          6           0        1.530745   -2.992356    1.279401
     13          6           0        1.224521   -1.733133    0.758614
     14          6           0       -1.617500    0.418687   -0.402448
     15          6           0       -2.404645    1.397438   -1.032646
     16          6           0       -3.641388    1.769789   -0.506401
     17          6           0       -4.121896    1.154684    0.651601
     18          6           0       -3.356699    0.170764    1.279648
     19          6           0       -2.113050   -0.193593    0.758871
     20          1           0        3.788808    3.689783    1.057784
     21          1           0        1.589790    3.386323    2.177897
     22          1           0       -0.068758    1.804662    1.255766
     23          1           0        2.640403    0.837240   -1.945218
     24          1           0        4.310165    2.399858   -1.005496
     25          1           0       -0.594624   -2.705336   -1.945448
     26          1           0       -0.076144   -4.932647   -1.005654
     27          1           0        1.301150   -5.125946    1.057969
     28          1           0        2.137275   -3.069717    2.178341
     29          1           0        1.596717   -0.842580    1.256074
     30          1           0       -2.046030    1.867077   -1.945858
     31          1           0       -4.234203    2.531645   -1.006072
     32          1           0       -5.089890    1.436019    1.057963
     33          1           0       -3.726796   -0.315605    2.178776
     34          1           0       -1.527734   -0.960933    1.256536
 ---------------------------------------------------------------------

 SCF Done:  E(RB3LYP) =  -1036.29823952     a.u. after    1 cycles

 Excitation energies and oscillator strengths:

 Excited State   1:      Singlet-A      4.5100 eV  274.91 nm  f=0.1279  <S**2>=0.000
      69 -> 70         0.69715
 This state for optimization and/or second-order correction.
 Total Energy, E(TD-HF/TD-DFT) =  -1036.13249861
 Copying the excited state density for this state as the 1-particle RhoCI density.

 Excited State   2:      Singlet-A      4.5103 eV  274.89 nm  f=0.1280  <S**2>=0.000
      69 -> 71         0.69715

 Excited State   3:      Singlet-A      4.7567 eV  260.65 nm  f=0.0022  <S**2>=0.000
      67 -> 70         0.12179
      68 -> 71         0.12185
      69 -> 72         0.67469

 Excited State   4:      Singlet-A      5.0577 eV  245.14 nm  f=0.0002  <S**2>=0.000
      66 -> 70        -0.16711
      67 -> 70        -0.12390
      68 -> 71         0.12383
      69 -> 74         0.62939

 Excited State   5:      Singlet-A      5.0578 eV  245.14 nm  f=0.0002  <S**2>=0.000
      66 -> 71         0.16719
      67 -> 71        -0.12395
      68 -> 70        -0.12394
      69 -> 75         0.62933

 Excited State   6:      Singlet-A      5.1506 eV  240.72 nm  f=0.0085  <S**2>=0.000
      69 -> 73         0.67914

 Excited State   7:      Singlet-A      5.4275 eV  228.44 nm  f=0.0147  <S**2>=0.000
      63 -> 72        -0.16609
      64 -> 74         0.14448
      65 -> 75         0.14422
      67 -> 70         0.41844
      68 -> 71         0.41764
      69 -> 72        -0.16506

 Excited State   8:      Singlet-A      5.5143 eV  224.84 nm  f=0.0004  <S**2>=0.000
      63 -> 74         0.14272
      64 -> 72        -0.21910
      64 -> 75         0.10711
      65 -> 72        -0.17888
      65 -> 74         0.10696
      66 -> 70         0.22576
      67 -> 70         0.26480
      68 -> 71        -0.26584
      68 -> 72         0.16357
      69 -> 74         0.28495

 Excited State   9:      Singlet-A      5.5144 eV  224.84 nm  f=0.0004  <S**2>=0.000
      63 -> 75         0.14277
      64 -> 72         0.17892
      64 -> 74         0.10692
      65 -> 72        -0.21913
      65 -> 75        -0.10697
      66 -> 71        -0.22561
      67 -> 71         0.26521
      67 -> 72         0.16365
      68 -> 70         0.26570
      69 -> 75         0.28505

 Excited State  10:      Singlet-A      5.6182 eV  220.68 nm  f=0.0009  <S**2>=0.000
      67 -> 71        -0.47480
      68 -> 70         0.47564

 The electronic state is 1-A.
 Alpha  occ. eigenvalues --  -77.08112 -10.19447 -10.19447 -10.19447 -10.19146
 Alpha  occ. eigenvalues --  -10.19146 -10.19146 -10.19117 -10.19117 -10.19117
 Alpha  occ. eigenvalues --  -10.19031 -10.19030 -10.19030 -10.19007 -10.19007
 Alpha  occ. eigenvalues --  -10.19007 -10.18962 -10.18961 -10.18961  -6.54843
 Alpha  occ. eigenvalues --   -4.71102  -4.71102  -4.70601  -0.85560  -0.84845
 Alpha  occ. eigenvalues --   -0.84845  -0.76669  -0.74366  -0.74366  -0.74329
 Alpha  occ. eigenvalues --   -0.73821  -0.73821  -0.64436  -0.60336  -0.60307
 Alpha  occ. eigenvalues --   -0.60307  -0.59207  -0.59207  -0.55448  -0.51435
 Alpha  occ. eigenvalues --   -0.51435  -0.49295  -0.45440  -0.45440  -0.44774
 Alpha  occ. eigenvalues --   -0.44345  -0.44345  -0.44067  -0.41946  -0.41868
 Alpha  occ. eigenvalues --   -0.41868  -0.40378  -0.40377  -0.36844  -0.36351
 Alpha  occ. eigenvalues --   -0.36351  -0.35899  -0.34252  -0.34252  -0.34224
 Alpha  occ. eigenvalues --   -0.31884  -0.31884  -0.26778  -0.25447  -0.25447
 Alpha  occ. eigenvalues --   -0.25243  -0.24704  -0.24704  -0.21143
 Alpha virt. eigenvalues --   -0.01880  -0.01879  -0.00830   0.00173   0.00428
 Alpha virt. eigenvalues --    0.00429   0.06884   0.06885   0.09493   0.11039
 Alpha virt. eigenvalues --    0.11039   0.13904   0.14529   0.14529   0.15164

 Mulliken charges:
               1
     1  C   -0.127053
     2  C   -0.122351
     3  C   -0.148243
     4  C   -0.092564
     5  C   -0.164452
     6  C   -0.116868
     7  P    0.450624
     8  C   -0.094444
     9  C   -0.153604
    10  C   -0.124497
    11  C   -0.140153
    12  C   -0.115561
    13  C   -0.164413
    14  C   -0.134170
    15  C   -0.174235
    16  C   -0.121674
    17  C   -0.168947
    18  C   -0.120182
    19  C   -0.172893
    20  H    0.142299
    21  H    0.144376
    22  H    0.177522
    23  H    0.142978
    24  H    0.139493
    25  H    0.139045
    26  H    0.132517
    27  H    0.131426
    28  H    0.134853
    29  H    0.144597
    30  H    0.112090
    31  H    0.112536
    32  H    0.106824
    33  H    0.116442
    34  H    0.128681
 Sum of Mulliken charges =  -0.00000

 Dipole moment (field-independent basis, Debye):
    X=              3.7428    Y=              0.1823    Z=             -0.1958  Tot=              3.7524
 Quadrupole moment (field-independent basis, Debye-Ang):
   XX=           -118.1514   YY=           -108.9114   ZZ=           -110.6673
   XY=              5.2636   XZ=              1.0485   YZ=              0.8374

 Summary of Natural Population Analysis:

                                       Natural Population
                Natural  -----------------------------------------------
    Atom  No    Charge         Core      Valence    Rydberg      Total
 -----------------------------------------------------------------------
      C    1   -0.20923      1.99909     4.19599    0.01414     6.20923
      C    2   -0.23448      1.99909     4.22114    0.01424     6.23448
      C    3   -0.20328      1.99900     4.18802    0.01627     6.20328
      C    4   -0.39822      1.99890     4.37363    0.02568     6.39822
      C    5   -0.21503      1.99902     4.20056    0.01545     6.21503
      C    6   -0.23176      1.99910     4.21849    0.01418     6.23176
      P    7    1.24220      9.99750     3.71005    0.05025    13.75780
      C    8   -0.40954      1.99888     4.38661    0.02406     6.40954
      C    9   -0.20169      1.99901     4.18729    0.01538     6.20169
      C   10   -0.24601      1.99910     4.23209    0.01482     6.24601
      C   11   -0.23725      1.99909     4.22320    0.01496     6.23725
      C   12   -0.22302      1.99909     4.20982    0.01411     6.22302
      C   13   -0.24212      1.99899     4.22603    0.01709     6.24212
      C   14   -0.48893      1.99886     4.46430    0.02577     6.48893
      C   15   -0.23764      1.99901     4.22223    0.01640     6.23764
      C   16   -0.24280      1.99910     4.22873    0.01497     6.24280
      C   17   -0.29808      1.99910     4.28226    0.01673     6.29808
      C   18   -0.23263      1.99909     4.21888    0.01466     6.23263
      C   19   -0.25734      1.99899     4.24033    0.01802     6.25734
      H   20    0.24038      0.00000     0.75877    0.00085     0.75962
      H   21    0.24456      0.00000     0.75457    0.00087     0.75544
      H   22    0.26214      0.00000     0.73656    0.00130     0.73786
      H   23    0.23849      0.00000     0.76038    0.00113     0.76151
      H   24    0.24133      0.00000     0.75774    0.00093     0.75867
      H   25    0.23786      0.00000     0.76090    0.00123     0.76214
      H   26    0.23877      0.00000     0.76036    0.00087     0.76123
      H   27    0.23580      0.00000     0.76333    0.00087     0.76420
      H   28    0.24001      0.00000     0.75911    0.00088     0.75999
      H   29    0.24417      0.00000     0.75455    0.00128     0.75583
      H   30    0.22282      0.00000     0.77622    0.00096     0.77718
      H   31    0.22898      0.00000     0.77010    0.00092     0.77102
      H   32    0.22508      0.00000     0.77402    0.00090     0.77492
      H   33    0.23159      0.00000     0.76753    0.00088     0.76841
      H   34    0.23487      0.00000     0.76359    0.00154     0.76513
 =======================================================================
   * Total *   -0.00000     45.98001    91.64739    0.37260   138.00000

 Normal termination of Gaussian 16 at Sun Aug 23 08:43:18 2020.
