 Gaussian 16, Revision A.03,

 ---------------------------------
 # opt=CalcAll B3LYP/6-31G* scf=qc
 ---------------------------------

 -------------------
 Title Card Required
 -------------------
 Symbolic Z-matrix:
 Charge =  0 Multiplicity = 1

 SCF Done:  E(RB3LYP) =  -1333.98411572     a.u. after    7 cycles
 SCF Done:  E(RB3LYP) =  -1333.99624431     a.u. after   17 cycles
 SCF Done:  E(RB3LYP) =  -1333.99768110     a.u. after   17 cycles
 SCF Done:  E(RB3LYP) =  -1333.99839669     a.u. after   15 cycles
 SCF Done:  E(RB3LYP) =  -1333.99875356     a.u. after   15 cycles
 SCF Done:  E(RB3LYP) =  -1333.99865448     a.u. after   17 cycles
 SCF Done:  E(RB3LYP) =  -1333.99895819     a.u. after   15 cycles
 SCF Done:  E(RB3LYP) =  -1333.99897061     a.u. after   11 cycles
 SCF Done:  E(RB3LYP) =  -1333.99896655     a.u. after    3 cycles
 SCF Done:  E(RB3LYP) =  -1333.99897593     a.u. after    7 cycles
 SCF Done:  E(RB3LYP) =  -1333.99897661     a.u. after    2 cycles
 SCF Done:  E(RB3LYP) =  -1333.99897591     a.u. after    2 cycles
 SCF Done:  E(RB3LYP) =  -1333.99897845     a.u. after    3 cycles
 SCF Done:  E(RB3LYP) =  -1333.99897393     a.u. after    3 cycles
 SCF Done:  E(RB3LYP) =  -1333.99897513     a.u. after    2 cycles
 SCF Done:  E(RB3LYP) =  -1333.99897393     a.u. after    5 cycles
 SCF Done:  E(RB3LYP) =  -1333.99897309     a.u. after    5 cycles
 SCF Done:  E(RB3LYP) =  -1333.99897523     a.u. after    2 cycles
 Optimization completed.
    -- Stationary point found.
 Normal termination of Gaussian 16 at Sun Aug 23 16:37:36 2020.

 ----------------------------------------------------------------------
 # freq B3LYP/6-31G* scf=qc volume NMR pop=NPA density=current Geom=All
 Check Guess=Read
 ----------------------------------------------------------------------

 Structure from the checkpoint file:  "phosphine_5_conf252.chk"
 -------------------
 Title Card Required
 -------------------
 Charge =  0 Multiplicity = 1

 SCF Done:  E(RB3LYP) =  -1333.99897523     a.u. after    1 cycles

      1  C    Isotropic =    80.0835   Anisotropy =   136.7478

      2  C    Isotropic =    60.7738   Anisotropy =   171.8381

      3  C    Isotropic =    61.5761   Anisotropy =   173.5461

      4  C    Isotropic =    59.0948   Anisotropy =   162.8238

      5  C    Isotropic =    79.9454   Anisotropy =   137.4525

      6  C    Isotropic =    32.6826   Anisotropy =    98.7819

      7  F    Isotropic =   295.8222   Anisotropy =   112.9039

      8  P    Isotropic =   366.1370   Anisotropy =    39.7610

      9  C    Isotropic =    61.6663   Anisotropy =   173.4677

     10  C    Isotropic =    60.6915   Anisotropy =   171.9350

     11  C    Isotropic =    80.0606   Anisotropy =   136.7306

     12  C    Isotropic =    32.6641   Anisotropy =    98.8310

     13  C    Isotropic =    79.9309   Anisotropy =   137.4243

     14  C    Isotropic =    59.0061   Anisotropy =   162.7826

     15  F    Isotropic =   295.7894   Anisotropy =   113.0820

     16  C    Isotropic =    61.6061   Anisotropy =   173.5243

     17  C    Isotropic =    59.0027   Anisotropy =   162.7407

     18  C    Isotropic =    79.9204   Anisotropy =   137.4270

     19  C    Isotropic =    32.6510   Anisotropy =    98.8428

     20  C    Isotropic =    80.0710   Anisotropy =   136.7187

     21  C    Isotropic =    60.6778   Anisotropy =   171.9003

     22  F    Isotropic =   295.7681   Anisotropy =   113.1049

     23  H    Isotropic =    25.4666   Anisotropy =     5.7395

     24  H    Isotropic =    25.3680   Anisotropy =    12.0396

     25  H    Isotropic =    24.6240   Anisotropy =     8.9341

     26  H    Isotropic =    25.3622   Anisotropy =     4.2543

     27  H    Isotropic =    25.3572   Anisotropy =    12.0166

     28  H    Isotropic =    25.4633   Anisotropy =     5.7378

     29  H    Isotropic =    25.3580   Anisotropy =     4.2564

     30  H    Isotropic =    24.6172   Anisotropy =     8.9172

     31  H    Isotropic =    24.6159   Anisotropy =     8.9125

     32  H    Isotropic =    25.3568   Anisotropy =     4.2608

     33  H    Isotropic =    25.4675   Anisotropy =     5.7331

     34  H    Isotropic =    25.3612   Anisotropy =    12.0009

  Exact polarizability: 226.331  -0.155 225.955   0.077  -0.170 167.778
 Approx polarizability: 338.077  -0.343 337.396   0.165  -0.387 314.982

                      1                      2                      3
                      A                      A                      A
 Frequencies --     23.1450                24.2354                37.4453
 Red. masses --      4.0514                 4.0936                 8.9987
 Frc consts  --      0.0013                 0.0014                 0.0074
 IR Inten    --      0.2506                 0.2554                 0.1018

                      4                      5                      6
                      A                      A                      A
 Frequencies --     37.4761                40.2395                50.6425
 Red. masses --      9.0818                 3.7339                 9.9529
 Frc consts  --      0.0075                 0.0036                 0.0150
 IR Inten    --      0.0910                 0.0048                 0.1146

                      7                      8                      9
                      A                      A                      A
 Frequencies --    132.9763               145.4391               145.8174
 Red. masses --      8.0537                 8.3707                 8.3737
 Frc consts  --      0.0839                 0.1043                 0.1049
 IR Inten    --      0.0235                 0.5221                 0.5142

                     10                     11                     12
                      A                      A                      A
 Frequencies --    209.0236               218.8551               219.5519
 Red. masses --      8.0493                 6.9852                 6.9953
 Frc consts  --      0.2072                 0.1971                 0.1987
 IR Inten    --      0.2898                 0.5287                 0.5288

                     13                     14                     15
                      A                      A                      A
 Frequencies --    307.9330               335.9750               336.1043
 Red. masses --      8.4308                 8.3139                 8.3081
 Frc consts  --      0.4710                 0.5529                 0.5530
 IR Inten    --      1.0313                 0.0452                 0.0429

                     16                     17                     18
                      A                      A                      A
 Frequencies --    397.1430               404.1132               404.1827
 Red. masses --      7.7423                 8.0371                 8.0097
 Frc consts  --      0.7195                 0.7733                 0.7709
 IR Inten    --      0.3036                10.1022                10.1089

                     19                     20                     21
                      A                      A                      A
 Frequencies --    420.6287               420.7496               424.7339
 Red. masses --      3.2850                 3.2762                 3.1352
 Frc consts  --      0.3424                 0.3417                 0.3332
 IR Inten    --      1.1494                 1.0940                 0.0231

                     22                     23                     24
                      A                      A                      A
 Frequencies --    434.9941               435.2485               463.5881
 Red. masses --      6.1439                 6.1516                 6.6453
 Frc consts  --      0.6850                 0.6866                 0.8414
 IR Inten    --     18.9026                19.0665                 7.4012

                     25                     26                     27
                      A                      A                      A
 Frequencies --    532.9933               533.1488               535.5331
 Red. masses --      2.8108                 2.8121                 2.9072
 Frc consts  --      0.4705                 0.4710                 0.4912
 IR Inten    --     21.8840                21.8797                13.4744

                     28                     29                     30
                      A                      A                      A
 Frequencies --    608.0660               630.0000               630.0545
 Red. masses --      7.9088                 7.8307                 7.8280
 Frc consts  --      1.7229                 1.8312                 1.8309
 IR Inten    --      0.0096                 0.0363                 0.0396

                     31                     32                     33
                      A                      A                      A
 Frequencies --    648.2447               648.3805               648.4591
 Red. masses --      7.2769                 7.3789                 7.3815
 Frc consts  --      1.8017                 1.8277                 1.8288
 IR Inten    --      0.0048                 0.1274                 0.1306

                     34                     35                     36
                      A                      A                      A
 Frequencies --    715.1293               715.6485               715.6995
 Red. masses --      4.8097                 4.8253                 4.8295
 Frc consts  --      1.4492                 1.4560                 1.4575
 IR Inten    --      1.0766                 3.9073                 3.9701

                     37                     38                     39
                      A                      A                      A
 Frequencies --    835.7342               835.8295               836.8523
 Red. masses --      1.2625                 1.2627                 1.3267
 Frc consts  --      0.5196                 0.5198                 0.5474
 IR Inten    --      0.5210                 0.5011                11.2869

                     40                     41                     42
                      A                      A                      A
 Frequencies --    839.5330               839.5620               839.8085
 Red. masses --      3.2733                 3.2625                 4.0364
 Frc consts  --      1.3593                 1.3549                 1.6773
 IR Inten    --     62.3859                61.5252                17.9645

                     43                     44                     45
                      A                      A                      A
 Frequencies --    843.6545               843.7903               844.0823
 Red. masses --      2.0032                 1.9826                 1.6664
 Frc consts  --      0.8400                 0.8317                 0.6995
 IR Inten    --     10.0248                10.2173                12.1636

                     46                     47                     48
                      A                      A                      A
 Frequencies --    958.6319               958.7516               959.8599
 Red. masses --      1.2561                 1.2560                 1.2587
 Frc consts  --      0.6801                 0.6802                 0.6833
 IR Inten    --      0.1694                 0.1646                 0.3343

                     49                     50                     51
                      A                      A                      A
 Frequencies --    969.9015               969.9948               973.4734
 Red. masses --      1.3354                 1.3352                 1.3194
 Frc consts  --      0.7402                 0.7402                 0.7367
 IR Inten    --      0.0362                 0.0325                 0.3112

                     52                     53                     54
                      A                      A                      A
 Frequencies --   1034.7143              1034.7976              1035.1772
 Red. masses --      3.0265                 3.0318                 3.0240
 Frc consts  --      1.9091                 1.9128                 1.9092
 IR Inten    --      7.9427                 7.9049                 0.1379

                     55                     56                     57
                      A                      A                      A
 Frequencies --   1102.9207              1103.1028              1108.8050
 Red. masses --      3.6675                 3.6666                 3.5539
 Frc consts  --      2.6285                 2.6287                 2.5744
 IR Inten    --     19.3300                19.1476                 1.8788

                     58                     59                     60
                      A                      A                      A
 Frequencies --   1127.5081              1127.7300              1127.9298
 Red. masses --      1.3303                 1.3304                 1.3291
 Frc consts  --      0.9964                 0.9969                 0.9962
 IR Inten    --      1.1179                 1.1949                 6.7341

                     61                     62                     63
                      A                      A                      A
 Frequencies --   1195.2127              1195.5793              1199.4871
 Red. masses --      1.1836                 1.1854                 1.1804
 Frc consts  --      0.9962                 0.9983                 1.0006
 IR Inten    --     60.6055                61.1406                 2.6044

                     64                     65                     66
                      A                      A                      A
 Frequencies --   1285.3240              1285.4474              1286.2069
 Red. masses --      3.7552                 3.7429                 3.7835
 Frc consts  --      3.6552                 3.6439                 3.6877
 IR Inten    --    167.3583               166.6269                38.4820

                     67                     68                     69
                      A                      A                      A
 Frequencies --   1324.1503              1327.2915              1327.7048
 Red. masses --      2.7400                 2.2227                 2.3102
 Frc consts  --      2.8306                 2.3071                 2.3994
 IR Inten    --      8.8135                 3.8687                 3.9064

                     70                     71                     72
                      A                      A                      A
 Frequencies --   1336.6874              1336.8664              1337.1314
 Red. masses --      2.3295                 2.2424                 1.9366
 Frc consts  --      2.4523                 2.3612                 2.0401
 IR Inten    --      0.3587                 0.3373                 0.8938

                     73                     74                     75
                      A                      A                      A
 Frequencies --   1437.9147              1438.0679              1438.2238
 Red. masses --      2.9861                 2.9923                 2.9889
 Frc consts  --      3.6377                 3.6460                 3.6426
 IR Inten    --      6.8088                 2.8368                 2.4803

                     76                     77                     78
                      A                      A                      A
 Frequencies --   1545.5333              1545.7010              1546.5012
 Red. masses --      2.4086                 2.4052                 2.4446
 Frc consts  --      3.3897                 3.3857                 3.4447
 IR Inten    --    116.2098               116.5942                24.3655

                     79                     80                     81
                      A                      A                      A
 Frequencies --   1633.9190              1633.9715              1633.9802
 Red. masses --      6.9693                 6.9577                 6.9627
 Frc consts  --     10.9622                10.9447                10.9527
 IR Inten    --      9.4431                13.2933                12.0242

                     82                     83                     84
                      A                      A                      A
 Frequencies --   1653.5004              1653.5556              1654.3773
 Red. masses --      5.8094                 5.8065                 5.8794
 Frc consts  --      9.3581                 9.3542                 9.4810
 IR Inten    --     82.8894                82.6211                22.5764

                     85                     86                     87
                      A                      A                      A
 Frequencies --   3188.7550              3188.8952              3188.9188
 Red. masses --      1.0892                 1.0892                 1.0891
 Frc consts  --      6.5254                 6.5260                 6.5256
 IR Inten    --      5.3417                 5.8853                 2.1650

                     88                     89                     90
                      A                      A                      A
 Frequencies --   3205.8948              3205.9513              3206.5696
 Red. masses --      1.0878                 1.0878                 1.0879
 Frc consts  --      6.5870                 6.5872                 6.5902
 IR Inten    --      2.0341                 2.0480                 0.3512

                     91                     92                     93
                      A                      A                      A
 Frequencies --   3221.8828              3221.9753              3222.1678
 Red. masses --      1.0942                 1.0942                 1.0940
 Frc consts  --      6.6922                 6.6924                 6.6922
 IR Inten    --      3.3403                 3.1424                11.3894

                     94                     95                     96
                      A                      A                      A
 Frequencies --   3222.5809              3222.6653              3222.8780
 Red. masses --      1.0937                 1.0936                 1.0939
 Frc consts  --      6.6921                 6.6919                 6.6946
 IR Inten    --     12.2438                12.1931                 0.4685

 - Thermochemistry -
 -------------------
 Temperature   298.150 Kelvin.  Pressure   1.00000 Atm.
 Atom     1 has atomic number  6 and mass  12.00000

 Molecular mass:   316.06287 amu.
 Principal axes and moments of inertia in atomic units:
                           1         2         3
     Eigenvalues --  8312.425248325.06276**********
           X            0.99973  -0.02322   0.00003
           Y            0.02322   0.99973  -0.00004
           Z           -0.00003   0.00004   1.00000
 This molecule is an asymmetric top.
 Rotational symmetry number  1.
 Warning -- assumption of classical behavior for rotation
           may cause significant error
 Rotational temperatures (Kelvin)      0.01042     0.01040     0.00597
 Rotational constants (GHZ):           0.21711     0.21678     0.12430
 Zero-point vibrational energy     655285.7 (Joules/Mol)
                                  156.61704 (Kcal/Mol)
 Warning -- explicit consideration of  28 degrees of freedom as
           vibrations may cause significant error
 Vibrational temperatures:     33.30    34.87    53.88    53.92    57.90
          (Kelvin)             72.86   191.32   209.25   209.80   300.74
                              314.88   315.89   443.05   483.39   483.58
                              571.40   581.43   581.53   605.19   605.36
                              611.10   625.86   626.23   667.00   766.86
                              767.08   770.51   874.87   906.43   906.51
                              932.68   932.87   932.99  1028.91  1029.66
                             1029.73  1202.44  1202.57  1204.04  1207.90
                             1207.94  1208.30  1213.83  1214.03  1214.45
                             1379.26  1379.43  1381.02  1395.47  1395.61
                             1400.61  1488.72  1488.84  1489.39  1586.86
                             1587.12  1595.32  1622.23  1622.55  1622.84
                             1719.64  1720.17  1725.79  1849.29  1849.47
                             1850.56  1905.16  1909.68  1910.27  1923.20
                             1923.45  1923.83  2068.84  2069.06  2069.28
                             2223.68  2223.92  2225.07  2350.85  2350.92
                             2350.93  2379.02  2379.10  2380.28  4587.91
                             4588.11  4588.14  4612.57  4612.65  4613.54
                             4635.57  4635.70  4635.98  4636.58  4636.70
                             4637.00

 Zero-point correction=                           0.249585 (Hartree/Particle)
 Thermal correction to Energy=                    0.268017
 Thermal correction to Enthalpy=                  0.268961
 Thermal correction to Gibbs Free Energy=         0.199483
 Sum of electronic and zero-point Energies=          -1333.749390
 Sum of electronic and thermal Energies=             -1333.730958
 Sum of electronic and thermal Enthalpies=           -1333.730014
 Sum of electronic and thermal Free Energies=        -1333.799493

                     E (Thermal)             CV                S
                      KCal/Mol        Cal/Mol-Kelvin    Cal/Mol-Kelvin
 Total                  168.183             71.395            146.230
 Electronic               0.000              0.000              0.000
 Translational            0.889              2.981             43.148
 Rotational               0.889              2.981             35.262
 Vibrational            166.406             65.433             67.820
 Vibration     1          0.593              1.985              6.344
 Vibration     2          0.593              1.985              6.253
 Vibration     3          0.594              1.982              5.390
 Vibration     4          0.594              1.982              5.388
 Vibration     5          0.594              1.981              5.247
 Vibration     6          0.595              1.977              4.792
 Vibration     7          0.613              1.920              2.903
 Vibration     8          0.617              1.908              2.731
 Vibration     9          0.617              1.907              2.726
 Vibration    10          0.642              1.827              2.052
 Vibration    11          0.647              1.812              1.969
 Vibration    12          0.647              1.811              1.963
 Vibration    13          0.698              1.659              1.373
 Vibration    14          0.717              1.604              1.231
 Vibration    15          0.717              1.603              1.231
 Vibration    16          0.764              1.476              0.973
 Vibration    17          0.769              1.461              0.948
 Vibration    18          0.769              1.461              0.947
 Vibration    19          0.783              1.425              0.890
 Vibration    20          0.783              1.425              0.889
 Vibration    21          0.787              1.416              0.876
 Vibration    22          0.796              1.394              0.842
 Vibration    23          0.796              1.393              0.842
 Vibration    24          0.821              1.331              0.756
 Vibration    25          0.888              1.177              0.581
 Vibration    26          0.888              1.177              0.580
 Vibration    27          0.891              1.171              0.575
 Vibration    28          0.967              1.015              0.436

 Optimization completed.
    -- Stationary point found.
 Normal termination of Gaussian 16 at Sun Aug 23 16:51:17 2020.
 Gaussian 16:  ES64L-G16RevA.03 25-Dec-2016

 ----------------------------------------------------------------------
 # TD(NStates=10, Root=1) B3LYP/6-31G* scf=qc volume pop=NPA density=cu
 rrent Geom=AllCheck Guess=Read
 ----------------------------------------------------------------------

 Structure from the checkpoint file:  "phosphine_5_conf253.chk"
 -------------------
 Title Card Required
 -------------------
 Charge =  0 Multiplicity = 1

                         Standard orientation:
 ---------------------------------------------------------------------
 Center     Atomic      Atomic             Coordinates (Angstroms)
 Number     Number       Type             X           Y           Z
 ---------------------------------------------------------------------
      1          6           0        0.686362    3.282782   -1.125067
      2          6           0        0.143597    2.109483   -0.599214
      3          6           0        0.659963    1.533112    0.572192
      4          6           0        1.734512    2.174205    1.213250
      5          6           0        2.296447    3.339877    0.695836
      6          6           0        1.758156    3.876048   -0.468782
      7          9           0        2.287371    5.009907   -0.972104
      8         15           0       -0.001151   -0.000393    1.374709
      9          6           0       -1.659370   -0.194981    0.571589
     10          6           0       -1.898180   -0.922569   -0.605146
     11          6           0       -3.185484   -1.040256   -1.131080
     12          6           0       -4.237220   -0.417715   -0.469377
     13          6           0       -4.044198    0.308674    0.700490
     14          6           0       -2.753733    0.406137    1.217764
     15          9           0       -5.483654   -0.527611   -0.972659
     16          6           0        0.997257   -1.338498    0.571440
     17          6           0        1.027303   -2.586114    1.218728
     18          6           0        1.757795   -3.654161    0.700959
     19          6           0        2.480547   -3.458009   -0.470631
     20          6           0        2.490205   -2.236560   -1.133636
     21          6           0        1.743922   -1.181391   -0.607096
     22          9           0        3.199732   -4.481711   -0.974389
     23          1           0        0.291857    3.737989   -2.027897
     24          1           0       -0.695468    1.644293   -1.107295
     25          1           0        2.135855    1.758280    2.134174
     26          1           0        3.127512    3.839056    1.183375
     27          1           0       -1.074110   -1.409712   -1.117192
     28          1           0       -3.380874   -1.603627   -2.037939
     29          1           0       -4.893564    0.771811    1.192049
     30          1           0       -2.595635    0.955413    2.142669
     31          1           0        0.474725   -2.723937    2.144905
     32          1           0        1.784159   -4.620779    1.193411
     33          1           0        3.073618   -2.123985   -2.041885
     34          1           0        1.750862   -0.224560   -1.119961
 ---------------------------------------------------------------------

 SCF Done:  E(RB3LYP) =  -1333.99897523     a.u. after    1 cycles

 Excitation energies and oscillator strengths:

 Excited State   1:      Singlet-A      4.5720 eV  271.18 nm  f=0.1339  <S**2>=0.000
      81 -> 82         0.69326
 This state for optimization and/or second-order correction.
 Total Energy, E(TD-HF/TD-DFT) =  -1333.83095873
 Copying the excited state density for this state as the 1-particle RhoCI density.

 Excited State   2:      Singlet-A      4.5765 eV  270.91 nm  f=0.1358  <S**2>=0.000
      81 -> 83         0.69302

 Excited State   3:      Singlet-A      4.5868 eV  270.31 nm  f=0.0105  <S**2>=0.000
      81 -> 84         0.68809

 Excited State   4:      Singlet-A      4.9047 eV  252.78 nm  f=0.0018  <S**2>=0.000
      81 -> 85         0.67639

 Excited State   5:      Singlet-A      4.9070 eV  252.67 nm  f=0.0016  <S**2>=0.000
      81 -> 86         0.67587

 Excited State   6:      Singlet-A      5.2396 eV  236.63 nm  f=0.0075  <S**2>=0.000
      79 -> 82         0.10644
      80 -> 83         0.10774
      81 -> 87         0.67229

 Excited State   7:      Singlet-A      5.4166 eV  228.90 nm  f=0.0001  <S**2>=0.000
      75 -> 84         0.14116
      77 -> 82         0.18422
      78 -> 83        -0.15935
      79 -> 82        -0.27636
      79 -> 83        -0.30099
      79 -> 85        -0.15407
      80 -> 82         0.30149
      80 -> 83        -0.26952
      80 -> 86         0.13752

 Excited State   8:      Singlet-A      5.4448 eV  227.71 nm  f=0.0019  <S**2>=0.000
      76 -> 82         0.21136
      77 -> 83        -0.16484
      77 -> 87         0.12240
      78 -> 82         0.16623
      79 -> 84         0.30550
      79 -> 86        -0.14686
      80 -> 84         0.39539
      80 -> 85         0.14741
      81 -> 85        -0.12478

 Excited State   9:      Singlet-A      5.4465 eV  227.64 nm  f=0.0021  <S**2>=0.000
      76 -> 83        -0.20694
      77 -> 82         0.14950
      78 -> 83         0.17511
      78 -> 87         0.12208
      79 -> 84         0.38930
      79 -> 85        -0.13810
      80 -> 84        -0.31576
      80 -> 86        -0.15654
      81 -> 86        -0.12577

 Excited State  10:      Singlet-A      5.6620 eV  218.98 nm  f=0.0044  <S**2>=0.000
      75 -> 84        -0.16140
      76 -> 84        -0.10151
      77 -> 82        -0.24770
      78 -> 83         0.23046
      79 -> 83        -0.19303
      79 -> 85         0.21462
      79 -> 86         0.10916
      80 -> 82         0.37624
      80 -> 85         0.11365
      80 -> 86        -0.23605

 The electronic state is 1-A.
 Alpha  occ. eigenvalues --  -77.09285 -24.70935 -24.70935 -24.70928 -10.27932
 Alpha  occ. eigenvalues --  -10.27932 -10.27922 -10.20803 -10.20802 -10.20797
 Alpha  occ. eigenvalues --  -10.20703 -10.20703 -10.20695 -10.20480 -10.20478
 Alpha  occ. eigenvalues --  -10.20476 -10.20319 -10.20318 -10.20311 -10.20310
 Alpha  occ. eigenvalues --  -10.20310 -10.20305  -6.55986  -4.72247  -4.72247
 Alpha  occ. eigenvalues --   -4.71743  -1.22114  -1.22114  -1.22105  -0.87207
 Alpha  occ. eigenvalues --   -0.86557  -0.86553  -0.77802  -0.76322  -0.76286
 Alpha  occ. eigenvalues --   -0.76283  -0.74869  -0.74865  -0.65458  -0.63138
 Alpha  occ. eigenvalues --   -0.62959  -0.62957  -0.60999  -0.60996  -0.57074
 Alpha  occ. eigenvalues --   -0.54666  -0.54663  -0.54254  -0.49447  -0.49443
 Alpha  occ. eigenvalues --   -0.49382  -0.48019  -0.48018  -0.46312  -0.46308
 Alpha  occ. eigenvalues --   -0.46295  -0.45865  -0.44922  -0.44919  -0.43857
 Alpha  occ. eigenvalues --   -0.43707  -0.43704  -0.42082  -0.40157  -0.40109
 Alpha  occ. eigenvalues --   -0.40106  -0.37164  -0.37156  -0.36438  -0.34998
 Alpha  occ. eigenvalues --   -0.34996  -0.34951  -0.33924  -0.33922  -0.27230
 Alpha  occ. eigenvalues --   -0.26848  -0.26602  -0.26595  -0.25430  -0.25418
 Alpha  occ. eigenvalues --   -0.21919
 Alpha virt. eigenvalues --   -0.02517  -0.02506  -0.02413  -0.01177  -0.01167
 Alpha virt. eigenvalues --   -0.00310   0.05874   0.05897   0.08466   0.10088
 Alpha virt. eigenvalues --    0.10090   0.12846   0.13529   0.13532   0.14052

 Mulliken charges:
               1
     1  C   -0.184514
     2  C   -0.151406
     3  C   -0.078368
     4  C   -0.160593
     5  C   -0.183394
     6  C    0.391350
     7  F   -0.281662
     8  P    0.435720
     9  C   -0.123554
    10  C   -0.163869
    11  C   -0.189843
    12  C    0.349143
    13  C   -0.182184
    14  C   -0.182224
    15  F   -0.300484
    16  C   -0.107060
    17  C   -0.155485
    18  C   -0.200483
    19  C    0.353618
    20  C   -0.178276
    21  C   -0.189209
    22  F   -0.299677
    23  H    0.165484
    24  H    0.180117
    25  H    0.159056
    26  H    0.162252
    27  H    0.153535
    28  H    0.143524
    29  H    0.139744
    30  H    0.128963
    31  H    0.137575
    32  H    0.139618
    33  H    0.142087
    34  H    0.130498
 Sum of Mulliken charges =  -0.00000

 Dipole moment (field-independent basis, Debye):
    X=              1.3384    Y=              3.2056    Z=              1.4593  Tot=              3.7678
 Quadrupole moment (field-independent basis, Debye-Ang):
   XX=           -143.9976   YY=           -135.0422   ZZ=           -121.8252
   XY=              5.0087   XZ=              0.5687   YZ=             -0.8028

 Summary of Natural Population Analysis:

                                       Natural Population
                Natural  -----------------------------------------------
    Atom  No    Charge         Core      Valence    Rydberg      Total
 -----------------------------------------------------------------------
      C    1   -0.29769      1.99898     4.28398    0.01473     6.29769
      C    2   -0.19446      1.99901     4.17938    0.01606     6.19446
      C    3   -0.38789      1.99891     4.36379    0.02519     6.38789
      C    4   -0.19277      1.99903     4.17850    0.01524     6.19277
      C    5   -0.30180      1.99899     4.28789    0.01492     6.30180
      C    6    0.45559      1.99844     3.51890    0.02707     5.54441
      F    7   -0.31901      1.99994     7.31347    0.00560     9.31901
      P    8    1.21019      9.99756     3.74074    0.05151    13.78981
      C    9   -0.47817      1.99888     4.45265    0.02664     6.47817
      C   10   -0.21917      1.99900     4.20308    0.01709     6.21917
      C   11   -0.30518      1.99899     4.29089    0.01530     6.30518
      C   12    0.38621      1.99844     3.58742    0.02793     5.61379
      C   13   -0.29732      1.99900     4.28327    0.01505     6.29732
      C   14   -0.23373      1.99903     4.21816    0.01654     6.23373
      F   15   -0.33572      1.99994     7.33026    0.00552     9.33572
      C   16   -0.45105      1.99887     4.42764    0.02453     6.45105
      C   17   -0.18659      1.99902     4.17219    0.01538     6.18659
      C   18   -0.33255      1.99899     4.31725    0.01631     6.33255
      C   19    0.39554      1.99844     3.57821    0.02782     5.60446
      C   20   -0.28421      1.99899     4.27041    0.01481     6.28421
      C   21   -0.27692      1.99900     4.25913    0.01879     6.27692
      F   22   -0.33483      1.99994     7.32939    0.00550     9.33483
      H   23    0.26065      0.00000     0.73818    0.00117     0.73935
      H   24    0.26396      0.00000     0.73485    0.00119     0.73604
      H   25    0.24808      0.00000     0.75072    0.00120     0.75192
      H   26    0.25868      0.00000     0.74014    0.00118     0.74132
      H   27    0.24859      0.00000     0.74971    0.00170     0.75141
      H   28    0.25034      0.00000     0.74846    0.00120     0.74966
      H   29    0.24767      0.00000     0.75109    0.00124     0.75233
      H   30    0.23181      0.00000     0.76730    0.00089     0.76819
      H   31    0.23736      0.00000     0.76153    0.00111     0.76264
      H   32    0.24855      0.00000     0.75027    0.00118     0.75145
      H   33    0.24923      0.00000     0.74956    0.00121     0.75077
      H   34    0.23660      0.00000     0.76206    0.00134     0.76340
 =======================================================================
   * Total *    0.00000     51.97740   109.59048    0.43212   162.00000

 Normal termination of Gaussian 16 at Sun Aug 23 17:06:14 2020.
