 Gaussian 16, Revision A.03,

 ---------------------------------
 # opt=CalcAll B3LYP/6-31G* scf=qc
 ---------------------------------

 -------------------
 Title Card Required
 -------------------
 Symbolic Z-matrix:
 Charge =  0 Multiplicity = 1

 SCF Done:  E(RB3LYP) =  -844.557305704     a.u. after    8 cycles
 SCF Done:  E(RB3LYP) =  -844.563794783     a.u. after   17 cycles
 SCF Done:  E(RB3LYP) =  -844.564287824     a.u. after   15 cycles
 SCF Done:  E(RB3LYP) =  -844.564328676     a.u. after    9 cycles
 SCF Done:  E(RB3LYP) =  -844.564329555     a.u. after    3 cycles
 Optimization completed.
    -- Stationary point found.
 Normal termination of Gaussian 16 at Sun Aug 23 11:01:43 2020.

 ----------------------------------------------------------------------
 # freq B3LYP/6-31G* scf=qc volume NMR pop=NPA density=current Geom=All
 Check Guess=Read
 ----------------------------------------------------------------------

 Structure from the checkpoint file:  "phosphine_3_conf22.chk"
 -------------------
 Title Card Required
 -------------------
 Charge =  0 Multiplicity = 1

 SCF Done:  E(RB3LYP) =  -844.564329555     a.u. after    1 cycles

      1  C    Isotropic =   173.0331   Anisotropy =    19.3199

      2  H    Isotropic =    30.7055   Anisotropy =     7.2646

      3  H    Isotropic =    30.7455   Anisotropy =    10.5225

      4  H    Isotropic =    31.0015   Anisotropy =     8.5257

      5  P    Isotropic =   385.0854   Anisotropy =    60.2099

      6  C    Isotropic =    52.7885   Anisotropy =   183.2182

      7  C    Isotropic =    67.9847   Anisotropy =   167.4359

      8  C    Isotropic =    68.8485   Anisotropy =   164.0554

      9  C    Isotropic =    69.4145   Anisotropy =   165.2695

     10  C    Isotropic =    68.8097   Anisotropy =   164.5512

     11  C    Isotropic =    62.6031   Anisotropy =   166.8327

     12  C    Isotropic =    51.8724   Anisotropy =   182.8445

     13  C    Isotropic =    60.5027   Anisotropy =   159.8358

     14  C    Isotropic =    69.1693   Anisotropy =   163.2071

     15  C    Isotropic =    67.5055   Anisotropy =   168.3009

     16  C    Isotropic =    68.2792   Anisotropy =   164.2389

     17  C    Isotropic =    62.8768   Anisotropy =   171.1493

     18  H    Isotropic =    24.8796   Anisotropy =     9.9825

     19  H    Isotropic =    24.9265   Anisotropy =     4.8985

     20  H    Isotropic =    25.0796   Anisotropy =     3.7303

     21  H    Isotropic =    25.0471   Anisotropy =     4.9719

     22  H    Isotropic =    24.9782   Anisotropy =    10.0500

     23  H    Isotropic =    24.4815   Anisotropy =     7.9898

     24  H    Isotropic =    24.9616   Anisotropy =     4.4623

     25  H    Isotropic =    25.0153   Anisotropy =     3.8946

     26  H    Isotropic =    25.0795   Anisotropy =     5.9087

     27  H    Isotropic =    25.1716   Anisotropy =    11.3346

  Exact polarizability: 201.355  -1.863 138.239  20.883  -1.675 117.951
 Approx polarizability: 285.380  -3.896 225.326  48.289  -5.082 209.326

                      1                      2                      3
                      A                      A                      A
 Frequencies --     19.6503                29.9433                55.9260
 Red. masses --      3.7894                 3.8334                 5.0671
 Frc consts  --      0.0009                 0.0020                 0.0093
 IR Inten    --      0.2500                 0.0667                 0.0709

                      4                      5                      6
                      A                      A                      A
 Frequencies --    117.5865               178.5588               186.8865
 Red. masses --      3.3695                 3.4615                 3.6209
 Frc consts  --      0.0274                 0.0650                 0.0745
 IR Inten    --      0.5134                 0.7295                 0.2039

                      7                      8                      9
                      A                      A                      A
 Frequencies --    233.3128               246.3960               267.1302
 Red. masses --      1.8300                 1.6581                 3.6682
 Frc consts  --      0.0587                 0.0593                 0.1542
 IR Inten    --      0.4883                 0.3057                 0.1576

                     10                     11                     12
                      A                      A                      A
 Frequencies --    323.2106               396.5531               408.1572
 Red. masses --      4.4978                 5.9075                 3.1696
 Frc consts  --      0.2768                 0.5473                 0.3111
 IR Inten    --      2.2788                 2.7535                 2.8911

                     13                     14                     15
                      A                      A                      A
 Frequencies --    412.6974               419.7810               488.2634
 Red. masses --      3.0644                 6.9760                 3.5147
 Frc consts  --      0.3075                 0.7243                 0.4937
 IR Inten    --      0.6186                 8.2544                10.4572

                     16                     17                     18
                      A                      A                      A
 Frequencies --    515.9425               632.6632               633.0544
 Red. masses --      3.9375                 6.4093                 6.4012
 Frc consts  --      0.6176                 1.5115                 1.5114
 IR Inten    --     12.4301                 0.1767                 0.0923

                     19                     20                     21
                      A                      A                      A
 Frequencies --    674.2506               702.6894               705.0928
 Red. masses --      5.3395                 6.1941                 4.9199
 Frc consts  --      1.4302                 1.8020                 1.4411
 IR Inten    --      8.3362                 0.9814                 3.2631

                     22                     23                     24
                      A                      A                      A
 Frequencies --    712.0468               713.7147               757.4307
 Red. masses --      2.2702                 2.0653                 1.5778
 Frc consts  --      0.6781                 0.6199                 0.5333
 IR Inten    --     20.8200                26.9501                35.5708

                     25                     26                     27
                      A                      A                      A
 Frequencies --    763.0354               861.1817               867.3761
 Red. masses --      1.7190                 1.2514                 1.2452
 Frc consts  --      0.5897                 0.5468                 0.5520
 IR Inten    --     13.6419                 0.1859                 0.0194

                     28                     29                     30
                      A                      A                      A
 Frequencies --    910.2611               919.8580               922.6448
 Red. masses --      1.3086                 1.2937                 1.3544
 Frc consts  --      0.6388                 0.6450                 0.6793
 IR Inten    --     24.9532                28.3964                 1.4252

                     31                     32                     33
                      A                      A                      A
 Frequencies --    936.7008               969.7276               977.1883
 Red. masses --      1.3619                 1.3597                 1.3601
 Frc consts  --      0.7040                 0.7534                 0.7652
 IR Inten    --      4.6173                 0.0627                 0.1024

                     34                     35                     36
                      A                      A                      A
 Frequencies --    996.8359              1001.2392              1015.2375
 Red. masses --      1.2506                 1.2591                 6.2349
 Frc consts  --      0.7322                 0.7437                 3.7863
 IR Inten    --      0.1419                 0.0538                 1.2334

                     37                     38                     39
                      A                      A                      A
 Frequencies --   1015.9829              1052.1457              1054.4470
 Red. masses --      6.2496                 3.2219                 3.1933
 Frc consts  --      3.8008                 2.1014                 2.0919
 IR Inten    --      2.5454                 1.0733                 1.1867

                     40                     41                     42
                      A                      A                      A
 Frequencies --   1106.2653              1112.2033              1113.0532
 Red. masses --      1.7293                 1.7329                 2.4343
 Frc consts  --      1.2469                 1.2630                 1.7769
 IR Inten    --      1.6970                 2.4033                13.3326

                     43                     44                     45
                      A                      A                      A
 Frequencies --   1117.9851              1193.4830              1194.2044
 Red. masses --      2.5286                 1.1026                 1.0987
 Frc consts  --      1.8621                 0.9254                 0.9232
 IR Inten    --      2.1512                 0.0064                 0.0647

                     46                     47                     48
                      A                      A                      A
 Frequencies --   1216.9043              1223.4340              1323.7555
 Red. masses --      1.1444                 1.1502                 3.2571
 Frc consts  --      0.9985                 1.0143                 3.3628
 IR Inten    --      3.9170                 0.6688                 2.3622

                     49                     50                     51
                      A                      A                      A
 Frequencies --   1331.6654              1351.3898              1363.1530
 Red. masses --      3.3531                 1.2959                 1.7089
 Frc consts  --      3.5033                 1.3944                 1.8709
 IR Inten    --      2.8884                 2.1918                 1.4903

                     52                     53                     54
                      A                      A                      A
 Frequencies --   1371.5841              1479.5027              1482.4638
 Red. masses --      1.5139                 2.0991                 2.0753
 Frc consts  --      1.6780                 2.7071                 2.6872
 IR Inten    --      2.1512                12.2468                 5.4951

                     55                     56                     57
                      A                      A                      A
 Frequencies --   1501.1090              1502.2068              1530.8742
 Red. masses --      1.0619                 1.0627                 2.0236
 Frc consts  --      1.4099                 1.4130                 2.7942
 IR Inten    --      4.1979                16.7068                 4.9287

                     58                     59                     60
                      A                      A                      A
 Frequencies --   1534.8447              1630.0431              1632.4695
 Red. masses --      1.9732                 5.0205                 5.1792
 Frc consts  --      2.7387                 7.8595                 8.1321
 IR Inten    --      6.4901                 1.1123                 0.2820

                     61                     62                     63
                      A                      A                      A
 Frequencies --   1646.7298              1649.4841              3049.4849
 Red. masses --      5.3167                 5.2603                 1.0329
 Frc consts  --      8.4945                 8.4325                 5.6592
 IR Inten    --      1.7913                 3.4188                12.5544

                     64                     65                     66
                      A                      A                      A
 Frequencies --   3131.3024              3138.0955              3174.8563
 Red. masses --      1.1045                 1.1020                 1.0855
 Frc consts  --      6.3804                 6.3941                 6.4465
 IR Inten    --     12.2653                 8.6815                 3.7908

                     67                     68                     69
                      A                      A                      A
 Frequencies --   3176.3195              3181.6116              3182.0152
 Red. masses --      1.0847                 1.0871                 1.0872
 Frc consts  --      6.4480                 6.4835                 6.4859
 IR Inten    --      1.4554                 0.5332                 0.2224

                     70                     71                     72
                      A                      A                      A
 Frequencies --   3190.9781              3192.1120              3198.2225
 Red. masses --      1.0907                 1.0916                 1.0939
 Frc consts  --      6.5432                 6.5537                 6.5927
 IR Inten    --      9.7070                21.0482                33.3410

                     73                     74                     75
                      A                      A                      A
 Frequencies --   3203.7146              3207.1133              3210.6135
 Red. masses --      1.0936                 1.0979                 1.0954
 Frc consts  --      6.6135                 6.6536                 6.6527
 IR Inten    --     34.2104                31.3145                18.4711

 - Thermochemistry -
 -------------------
 Temperature   298.150 Kelvin.  Pressure   1.00000 Atm.
 Atom     1 has atomic number  6 and mass  12.00000

 Molecular mass:   200.07549 amu.
 Principal axes and moments of inertia in atomic units:
                           1         2         3
     Eigenvalues --  1570.003634673.628385299.18549
           X            0.99999  -0.00071   0.00536
           Y            0.00047   0.99898   0.04507
           Z           -0.00538  -0.04507   0.99897
 This molecule is an asymmetric top.
 Rotational symmetry number  1.
 Warning -- assumption of classical behavior for rotation
           may cause significant error
 Rotational temperatures (Kelvin)      0.05517     0.01853     0.01634
 Rotational constants (GHZ):           1.14951     0.38615     0.34057
 Zero-point vibrational energy     579830.2 (Joules/Mol)
                                  138.58276 (Kcal/Mol)
 Warning -- explicit consideration of  16 degrees of freedom as
           vibrations may cause significant error
 Vibrational temperatures:     28.27    43.08    80.46   169.18   256.91
          (Kelvin)            268.89   335.69   354.51   384.34   465.03
                              570.55   587.25   593.78   603.97   702.50
                              742.33   910.26   910.82   970.10  1011.01
                             1014.47  1024.48  1026.88  1089.77  1097.84
                             1239.05  1247.96  1309.66  1323.47  1327.48
                             1347.70  1395.22  1405.96  1434.22  1440.56
                             1460.70  1461.77  1513.80  1517.11  1591.67
                             1600.21  1601.44  1608.53  1717.16  1718.19
                             1750.85  1760.25  1904.59  1915.97  1944.35
                             1961.27  1973.40  2128.67  2132.93  2159.76
                             2161.34  2202.59  2208.30  2345.27  2348.76
                             2369.28  2373.24  4387.53  4505.25  4515.02
                             4567.91  4570.02  4577.63  4578.21  4591.11
                             4592.74  4601.53  4609.43  4614.32  4619.36

 Zero-point correction=                           0.220846 (Hartree/Particle)
 Thermal correction to Energy=                    0.233542
 Thermal correction to Enthalpy=                  0.234486
 Thermal correction to Gibbs Free Energy=         0.179769
 Sum of electronic and zero-point Energies=           -844.343484
 Sum of electronic and thermal Energies=              -844.330788
 Sum of electronic and thermal Enthalpies=            -844.329844
 Sum of electronic and thermal Free Energies=         -844.384561

                     E (Thermal)             CV                S
                      KCal/Mol        Cal/Mol-Kelvin    Cal/Mol-Kelvin
 Total                  146.550             49.332            115.162
 Electronic               0.000              0.000              0.000
 Translational            0.889              2.981             41.785
 Rotational               0.889              2.981             32.031
 Vibrational            144.772             43.370             41.346
 Vibration     1          0.593              1.986              6.669
 Vibration     2          0.594              1.984              5.833
 Vibration     3          0.596              1.975              4.596
 Vibration     4          0.608              1.935              3.140
 Vibration     5          0.629              1.869              2.343
 Vibration     6          0.632              1.858              2.258
 Vibration     7          0.654              1.790              1.853
 Vibration     8          0.661              1.769              1.756
 Vibration     9          0.672              1.733              1.615
 Vibration    10          0.708              1.629              1.294
 Vibration    11          0.763              1.478              0.975
 Vibration    12          0.773              1.453              0.933
 Vibration    13          0.776              1.443              0.917
 Vibration    14          0.782              1.427              0.893
 Vibration    15          0.844              1.276              0.688
 Vibration    16          0.871              1.215              0.619

 Optimization completed.
    -- Stationary point found.
 Normal termination of Gaussian 16 at Sun Aug 23 11:07:42 2020.
 Gaussian 16:  ES64L-G16RevA.03 25-Dec-2016

 ----------------------------------------------------------------------
 # TD(NStates=10, Root=1) B3LYP/6-31G* scf=qc volume pop=NPA density=cu
 rrent Geom=AllCheck Guess=Read
 ----------------------------------------------------------------------

 Structure from the checkpoint file:  "phosphine_3_conf23.chk"
 -------------------
 Title Card Required
 -------------------
 Charge =  0 Multiplicity = 1

                         Standard orientation:
 ---------------------------------------------------------------------
 Center     Atomic      Atomic             Coordinates (Angstroms)
 Number     Number       Type             X           Y           Z
 ---------------------------------------------------------------------
      1          6           0       -0.056518    2.585881    0.713996
      2          1           0        0.004517    2.109380    1.698435
      3          1           0        0.766408    3.300193    0.605775
      4          1           0       -0.994645    3.146690    0.656765
      5         15           0       -0.036655    1.368986   -0.701811
      6          6           0        1.434469    0.319028   -0.299644
      7          6           0        2.399977    0.657879    0.659900
      8          6           0        3.530099   -0.142003    0.853016
      9          6           0        3.712695   -1.296906    0.094121
     10          6           0        2.760445   -1.645762   -0.867671
     11          6           0        1.640542   -0.841927   -1.067159
     12          6           0       -1.438343    0.263245   -0.190142
     13          6           0       -2.620237    0.316967   -0.943536
     14          6           0       -3.728339   -0.458427   -0.593486
     15          6           0       -3.664084   -1.307085    0.511644
     16          6           0       -2.489455   -1.376838    1.265781
     17          6           0       -1.386487   -0.597530    0.918210
     18          1           0        2.279957    1.549660    1.267460
     19          1           0        4.265481    0.139997    1.602481
     20          1           0        4.590551   -1.919221    0.246135
     21          1           0        2.894176   -2.542674   -1.467111
     22          1           0        0.911988   -1.120401   -1.825399
     23          1           0       -2.670152    0.968255   -1.813068
     24          1           0       -4.636715   -0.403924   -1.188020
     25          1           0       -4.522582   -1.916054    0.782895
     26          1           0       -2.433299   -2.040385    2.125174
     27          1           0       -0.474442   -0.665441    1.505463
 ---------------------------------------------------------------------

 SCF Done:  E(RB3LYP) =  -844.564329555     a.u. after    1 cycles

 Excitation energies and oscillator strengths:

 Excited State   1:      Singlet-A      4.6039 eV  269.30 nm  f=0.0434  <S**2>=0.000
      53 -> 54         0.68722
      53 -> 55        -0.11745
 This state for optimization and/or second-order correction.
 Total Energy, E(TD-HF/TD-DFT) =  -844.395139286
 Copying the excited state density for this state as the 1-particle RhoCI density.

 Excited State   2:      Singlet-A      4.8960 eV  253.24 nm  f=0.0130  <S**2>=0.000
      51 -> 55         0.10653
      52 -> 54         0.13695
      52 -> 55         0.11084
      53 -> 55        -0.22446
      53 -> 56         0.62598

 Excited State   3:      Singlet-A      5.0081 eV  247.57 nm  f=0.1455  <S**2>=0.000
      53 -> 54         0.10808
      53 -> 55         0.61691
      53 -> 56         0.20037
      53 -> 57        -0.18836

 Excited State   4:      Singlet-A      5.1449 eV  240.98 nm  f=0.0380  <S**2>=0.000
      50 -> 55         0.12115
      51 -> 54        -0.20890
      52 -> 55        -0.13425
      52 -> 56        -0.10059
      53 -> 55         0.16880
      53 -> 56         0.12466
      53 -> 57         0.59534

 Excited State   5:      Singlet-A      5.4213 eV  228.70 nm  f=0.0047  <S**2>=0.000
      50 -> 55        -0.19269
      50 -> 56         0.26431
      50 -> 57         0.20846
      51 -> 54         0.36814
      51 -> 55        -0.15857
      52 -> 54        -0.31117
      52 -> 56         0.15540
      52 -> 57         0.12174
      53 -> 56         0.12029
      53 -> 57         0.16402

 Excited State   6:      Singlet-A      5.7387 eV  216.05 nm  f=0.0117  <S**2>=0.000
      49 -> 56        -0.20571
      49 -> 57         0.15897
      50 -> 54        -0.15934
      51 -> 54         0.32358
      52 -> 54         0.48529
      53 -> 57         0.18593

 Excited State   7:      Singlet-A      5.8270 eV  212.78 nm  f=0.0124  <S**2>=0.000
      49 -> 56        -0.24842
      49 -> 57         0.18001
      51 -> 54        -0.14196
      51 -> 55         0.13192
      51 -> 56         0.11195
      52 -> 54        -0.18626
      52 -> 55         0.51486
      53 -> 57         0.14824

 Excited State   8:      Singlet-A      5.8570 eV  211.69 nm  f=0.0222  <S**2>=0.000
      49 -> 54         0.18058
      49 -> 56         0.10119
      50 -> 54         0.46244
      50 -> 55         0.34276
      50 -> 56         0.16426
      51 -> 56        -0.10990
      52 -> 54         0.14566
      52 -> 56         0.19499

 Excited State   9:      Singlet-A      5.9280 eV  209.15 nm  f=0.0005  <S**2>=0.000
      50 -> 54         0.16607
      51 -> 54         0.20631
      51 -> 55         0.57146
      51 -> 56         0.12199
      52 -> 55        -0.21546
      52 -> 56        -0.13313

 Excited State  10:      Singlet-A      5.9923 eV  206.91 nm  f=0.0265  <S**2>=0.000
      49 -> 54        -0.31225
      50 -> 54        -0.20273
      50 -> 55         0.45940
      50 -> 56         0.17149
      51 -> 54         0.13482
      51 -> 56         0.16753
      52 -> 55         0.12326
      52 -> 56        -0.14922

 The electronic state is 1-A.
 Alpha  occ. eigenvalues --  -77.07968 -10.19392 -10.19299 -10.19192 -10.19093
 Alpha  occ. eigenvalues --  -10.19069 -10.19058 -10.19012 -10.19001 -10.18964
 Alpha  occ. eigenvalues --  -10.18942 -10.18899 -10.18857 -10.18421  -6.54710
 Alpha  occ. eigenvalues --   -4.70976  -4.70963  -4.70459  -0.85270  -0.84774
 Alpha  occ. eigenvalues --   -0.76468  -0.74321  -0.74255  -0.73796  -0.70921
 Alpha  occ. eigenvalues --   -0.62338  -0.60252  -0.59977  -0.59281  -0.55060
 Alpha  occ. eigenvalues --   -0.51448  -0.49651  -0.45409  -0.44649  -0.44597
 Alpha  occ. eigenvalues --   -0.44242  -0.42401  -0.42079  -0.41685  -0.41109
 Alpha  occ. eigenvalues --   -0.38955  -0.37870  -0.36382  -0.36119  -0.34369
 Alpha  occ. eigenvalues --   -0.34239  -0.32560  -0.31575  -0.26446  -0.25180
 Alpha  occ. eigenvalues --   -0.25018  -0.24725  -0.21380
 Alpha virt. eigenvalues --   -0.01530  -0.00807  -0.00419   0.00542   0.06284
 Alpha virt. eigenvalues --    0.07175   0.09234   0.10908   0.12717   0.13594
 Alpha virt. eigenvalues --    0.14142   0.14681   0.15149   0.15528   0.16193

 Mulliken charges:
               1
     1  C   -0.640358
     2  H    0.215655
     3  H    0.161072
     4  H    0.203728
     5  P    0.507439
     6  C   -0.067085
     7  C   -0.159630
     8  C   -0.112986
     9  C   -0.121506
    10  C   -0.115328
    11  C   -0.143108
    12  C   -0.150297
    13  C   -0.175821
    14  C   -0.134751
    15  C   -0.192789
    16  C   -0.109914
    17  C   -0.192297
    18  H    0.148044
    19  H    0.149078
    20  H    0.153114
    21  H    0.152403
    22  H    0.168949
    23  H    0.089955
    24  H    0.093460
    25  H    0.085485
    26  H    0.100162
    27  H    0.087325
 Sum of Mulliken charges =   0.00000

 Dipole moment (field-independent basis, Debye):
    X=              7.0090    Y=              2.3418    Z=             -0.4366  Tot=              7.4028
 Quadrupole moment (field-independent basis, Debye-Ang):
   XX=            -91.9217   YY=            -83.0697   ZZ=            -86.8604
   XY=             -6.4528   XZ=              4.1100   YZ=              1.5635

 Summary of Natural Population Analysis:

                                       Natural Population
                Natural  -----------------------------------------------
    Atom  No    Charge         Core      Valence    Rydberg      Total
 -----------------------------------------------------------------------
      C    1   -1.03466      1.99946     5.02410    0.01111     7.03466
      H    2    0.27674      0.00000     0.72217    0.00109     0.72326
      H    3    0.23977      0.00000     0.75839    0.00183     0.76023
      H    4    0.27450      0.00000     0.72481    0.00069     0.72550
      P    5    1.26001      9.99755     3.69254    0.04989    13.73999
      C    6   -0.37069      1.99892     4.34852    0.02324     6.37069
      C    7   -0.21168      1.99900     4.19732    0.01535     6.21168
      C    8   -0.22550      1.99910     4.21216    0.01424     6.22550
      C    9   -0.19005      1.99909     4.17689    0.01406     6.19005
      C   10   -0.23276      1.99910     4.21948    0.01417     6.23276
      C   11   -0.18253      1.99902     4.16711    0.01640     6.18253
      C   12   -0.53824      1.99883     4.51449    0.02492     6.53824
      C   13   -0.23976      1.99902     4.22468    0.01606     6.23976
      C   14   -0.26951      1.99910     4.25447    0.01594     6.26951
      C   15   -0.34754      1.99910     4.33065    0.01779     6.34754
      C   16   -0.21949      1.99908     4.20595    0.01445     6.21949
      C   17   -0.30980      1.99898     4.29105    0.01977     6.30980
      H   18    0.24186      0.00000     0.75691    0.00123     0.75814
      H   19    0.24608      0.00000     0.75309    0.00083     0.75392
      H   20    0.24448      0.00000     0.75472    0.00079     0.75552
      H   21    0.24842      0.00000     0.75081    0.00078     0.75158
      H   22    0.25530      0.00000     0.74311    0.00159     0.74470
      H   23    0.21173      0.00000     0.78753    0.00073     0.78827
      H   24    0.22042      0.00000     0.77872    0.00086     0.77958
      H   25    0.21567      0.00000     0.78355    0.00078     0.78433
      H   26    0.22423      0.00000     0.77490    0.00086     0.77577
      H   27    0.21297      0.00000     0.78597    0.00106     0.78703
 =======================================================================
   * Total *   -0.00000     35.98536    69.73413    0.28052   106.00000

 Normal termination of Gaussian 16 at Sun Aug 23 11:15:02 2020.
