 Gaussian 16, Revision A.03,

 ---------------------------------
 # opt=CalcAll B3LYP/6-31G* scf=qc
 ---------------------------------

 -------------------
 Title Card Required
 -------------------
 Symbolic Z-matrix:
 Charge =  0 Multiplicity = 1

 SCF Done:  E(RB3LYP) =  -1333.98464308     a.u. after    8 cycles
 SCF Done:  E(RB3LYP) =  -1333.99575060     a.u. after   15 cycles
 SCF Done:  E(RB3LYP) =  -1333.99821191     a.u. after   19 cycles
 SCF Done:  E(RB3LYP) =  -1333.99884744     a.u. after   17 cycles
 SCF Done:  E(RB3LYP) =  -1333.99896881     a.u. after   11 cycles
 SCF Done:  E(RB3LYP) =  -1333.99897660     a.u. after    9 cycles
 SCF Done:  E(RB3LYP) =  -1333.99897690     a.u. after    7 cycles
 SCF Done:  E(RB3LYP) =  -1333.99898011     a.u. after    2 cycles
 SCF Done:  E(RB3LYP) =  -1333.99898279     a.u. after    2 cycles
 SCF Done:  E(RB3LYP) =  -1333.99897844     a.u. after    2 cycles
 SCF Done:  E(RB3LYP) =  -1333.99897703     a.u. after    2 cycles
 SCF Done:  E(RB3LYP) =  -1333.99897910     a.u. after    2 cycles
 SCF Done:  E(RB3LYP) =  -1333.99897999     a.u. after    2 cycles
 SCF Done:  E(RB3LYP) =  -1333.99897694     a.u. after    4 cycles
 SCF Done:  E(RB3LYP) =  -1333.99897868     a.u. after    3 cycles
 SCF Done:  E(RB3LYP) =  -1333.99897228     a.u. after    4 cycles
 SCF Done:  E(RB3LYP) =  -1333.99897272     a.u. after    2 cycles
 SCF Done:  E(RB3LYP) =  -1333.99897543     a.u. after    2 cycles
 Optimization completed.
    -- Stationary point found.
 Normal termination of Gaussian 16 at Sun Aug 23 15:13:37 2020.

 ----------------------------------------------------------------------
 # freq B3LYP/6-31G* scf=qc volume NMR pop=NPA density=current Geom=All
 Check Guess=Read
 ----------------------------------------------------------------------

 Structure from the checkpoint file:  "phosphine_5_conf302.chk"
 -------------------
 Title Card Required
 -------------------
 Charge =  0 Multiplicity = 1

 SCF Done:  E(RB3LYP) =  -1333.99897543     a.u. after    1 cycles

      1  C    Isotropic =    79.9228   Anisotropy =   137.4312

      2  C    Isotropic =    59.0431   Anisotropy =   162.8171

      3  C    Isotropic =    61.6163   Anisotropy =   173.4709

      4  C    Isotropic =    60.7297   Anisotropy =   171.8682

      5  C    Isotropic =    80.0699   Anisotropy =   136.7198

      6  C    Isotropic =    32.6649   Anisotropy =    98.8199

      7  F    Isotropic =   295.8119   Anisotropy =   113.0552

      8  P    Isotropic =   366.0879   Anisotropy =    39.6525

      9  C    Isotropic =    61.6372   Anisotropy =   173.5235

     10  C    Isotropic =    60.7019   Anisotropy =   171.9375

     11  C    Isotropic =    80.0763   Anisotropy =   136.7610

     12  C    Isotropic =    32.6623   Anisotropy =    98.8175

     13  C    Isotropic =    79.9485   Anisotropy =   137.4401

     14  C    Isotropic =    59.0311   Anisotropy =   162.7711

     15  F    Isotropic =   295.7627   Anisotropy =   113.0003

     16  C    Isotropic =    61.5768   Anisotropy =   173.5047

     17  C    Isotropic =    59.0401   Anisotropy =   162.7957

     18  C    Isotropic =    79.9291   Anisotropy =   137.4274

     19  C    Isotropic =    32.6740   Anisotropy =    98.8188

     20  C    Isotropic =    80.0672   Anisotropy =   136.7180

     21  C    Isotropic =    60.7155   Anisotropy =   171.8380

     22  F    Isotropic =   295.8155   Anisotropy =   113.0338

     23  H    Isotropic =    25.3565   Anisotropy =     4.2621

     24  H    Isotropic =    24.6200   Anisotropy =     8.9277

     25  H    Isotropic =    25.3666   Anisotropy =    12.0269

     26  H    Isotropic =    25.4682   Anisotropy =     5.7348

     27  H    Isotropic =    25.3602   Anisotropy =    12.0184

     28  H    Isotropic =    25.4647   Anisotropy =     5.7378

     29  H    Isotropic =    25.3603   Anisotropy =     4.2514

     30  H    Isotropic =    24.6180   Anisotropy =     8.9135

     31  H    Isotropic =    24.6202   Anisotropy =     8.9253

     32  H    Isotropic =    25.3597   Anisotropy =     4.2576

     33  H    Isotropic =    25.4653   Anisotropy =     5.7387

     34  H    Isotropic =    25.3670   Anisotropy =    12.0242

  Exact polarizability: 226.245  -0.062 226.121   0.067   0.027 167.699
 Approx polarizability: 337.946  -0.133 337.709   0.152   0.060 314.812

                      1                      2                      3
                      A                      A                      A
 Frequencies --     23.3335                24.0322                37.3594
 Red. masses --      4.0685                 4.0640                 8.9259
 Frc consts  --      0.0013                 0.0014                 0.0073
 IR Inten    --      0.2539                 0.2529                 0.0948

                      4                      5                      6
                      A                      A                      A
 Frequencies --     37.5514                40.2523                50.5861
 Red. masses --      9.0732                 3.7584                 9.9502
 Frc consts  --      0.0075                 0.0036                 0.0150
 IR Inten    --      0.0959                 0.0072                 0.1140

                      7                      8                      9
                      A                      A                      A
 Frequencies --    133.0060               145.4347               145.7821
 Red. masses --      8.0526                 8.3699                 8.3761
 Frc consts  --      0.0839                 0.1043                 0.1049
 IR Inten    --      0.0231                 0.5210                 0.5155

                     10                     11                     12
                      A                      A                      A
 Frequencies --    208.9904               219.0790               219.3523
 Red. masses --      8.0478                 6.9892                 6.9917
 Frc consts  --      0.2071                 0.1976                 0.1982
 IR Inten    --      0.2904                 0.5302                 0.5292

                     13                     14                     15
                      A                      A                      A
 Frequencies --    307.9110               335.9720               336.1192
 Red. masses --      8.4335                 8.3076                 8.3107
 Frc consts  --      0.4711                 0.5525                 0.5532
 IR Inten    --      1.0325                 0.0431                 0.0439

                     16                     17                     18
                      A                      A                      A
 Frequencies --    397.1530               404.0913               404.1573
 Red. masses --      7.7403                 8.0410                 8.0056
 Frc consts  --      0.7193                 0.7736                 0.7705
 IR Inten    --      0.3009                10.0451                10.1341

                     19                     20                     21
                      A                      A                      A
 Frequencies --    420.6650               420.7076               424.7229
 Red. masses --      3.2812                 3.2786                 3.1353
 Frc consts  --      0.3421                 0.3419                 0.3332
 IR Inten    --      1.0989                 1.1284                 0.0249

                     22                     23                     24
                      A                      A                      A
 Frequencies --    435.1065               435.1594               463.5373
 Red. masses --      6.1467                 6.1522                 6.6438
 Frc consts  --      0.6856                 0.6864                 0.8411
 IR Inten    --     19.0014                18.9852                 7.3947

                     25                     26                     27
                      A                      A                      A
 Frequencies --    532.9838               533.1133               535.5339
 Red. masses --      2.8115                 2.8110                 2.9070
 Frc consts  --      0.4706                 0.4707                 0.4912
 IR Inten    --     21.8554                21.8746                13.4943

                     28                     29                     30
                      A                      A                      A
 Frequencies --    608.0548               629.9977               630.0551
 Red. masses --      7.9090                 7.8300                 7.8296
 Frc consts  --      1.7229                 1.8310                 1.8312
 IR Inten    --      0.0095                 0.0380                 0.0380

                     31                     32                     33
                      A                      A                      A
 Frequencies --    648.2328               648.4071               648.4277
 Red. masses --      7.2768                 7.3792                 7.3812
 Frc consts  --      1.8016                 1.8279                 1.8285
 IR Inten    --      0.0049                 0.1279                 0.1283

                     34                     35                     36
                      A                      A                      A
 Frequencies --    715.1426               715.6061               715.7081
 Red. masses --      4.8099                 4.8254                 4.8282
 Frc consts  --      1.4493                 1.4559                 1.4572
 IR Inten    --      1.0307                 3.9415                 3.9751

                     37                     38                     39
                      A                      A                      A
 Frequencies --    835.7153               835.7932               836.8384
 Red. masses --      1.2644                 1.2613                 1.3268
 Frc consts  --      0.5203                 0.5191                 0.5475
 IR Inten    --      0.5436                 0.4947                11.3020

                     40                     41                     42
                      A                      A                      A
 Frequencies --    839.5184               839.5657               839.8158
 Red. masses --      3.2317                 3.2783                 4.0220
 Frc consts  --      1.3420                 1.3615                 1.6713
 IR Inten    --     62.2769                61.7332                18.1488

                     43                     44                     45
                      A                      A                      A
 Frequencies --    843.6719               843.7277               844.0708
 Red. masses --      1.9870                 1.9923                 1.6797
 Frc consts  --      0.8333                 0.8356                 0.7051
 IR Inten    --     10.0564                 9.8056                12.2430

                     46                     47                     48
                      A                      A                      A
 Frequencies --    958.6340               958.6733               959.8474
 Red. masses --      1.2561                 1.2559                 1.2586
 Frc consts  --      0.6801                 0.6801                 0.6832
 IR Inten    --      0.1686                 0.1691                 0.3317

                     49                     50                     51
                      A                      A                      A
 Frequencies --    969.8705               969.9449               973.4182
 Red. masses --      1.3354                 1.3354                 1.3196
 Frc consts  --      0.7401                 0.7402                 0.7367
 IR Inten    --      0.0363                 0.0329                 0.3101

                     52                     53                     54
                      A                      A                      A
 Frequencies --   1034.7072              1034.8078              1035.1871
 Red. masses --      3.0266                 3.0319                 3.0244
 Frc consts  --      1.9092                 1.9129                 1.9095
 IR Inten    --      7.9817                 7.8516                 0.1571

                     55                     56                     57
                      A                      A                      A
 Frequencies --   1102.8724              1103.1506              1108.8082
 Red. masses --      3.6684                 3.6661                 3.5540
 Frc consts  --      2.6289                 2.6286                 2.5744
 IR Inten    --     19.2064                19.2159                 1.9009

                     58                     59                     60
                      A                      A                      A
 Frequencies --   1127.5774              1127.7157              1127.9215
 Red. masses --      1.3305                 1.3304                 1.3291
 Frc consts  --      0.9967                 0.9969                 0.9963
 IR Inten    --      0.8692                 1.2499                 6.9126

                     61                     62                     63
                      A                      A                      A
 Frequencies --   1195.2345              1195.5875              1199.4982
 Red. masses --      1.1836                 1.1854                 1.1804
 Frc consts  --      0.9962                 0.9983                 1.0006
 IR Inten    --     60.6137                61.1309                 2.5900

                     64                     65                     66
                      A                      A                      A
 Frequencies --   1285.3260              1285.4587              1286.2089
 Red. masses --      3.7547                 3.7436                 3.7832
 Frc consts  --      3.6547                 3.6447                 3.6875
 IR Inten    --    167.3517               166.2984                38.8065

                     67                     68                     69
                      A                      A                      A
 Frequencies --   1324.1373              1327.3231              1327.7041
 Red. masses --      2.7457                 2.2258                 2.3193
 Frc consts  --      2.8364                 2.3104                 2.4089
 IR Inten    --      8.8118                 3.9513                 3.8426

                     70                     71                     72
                      A                      A                      A
 Frequencies --   1336.7308              1336.8621              1337.1413
 Red. masses --      2.3293                 2.2281                 1.9360
 Frc consts  --      2.4523                 2.3461                 2.0395
 IR Inten    --      0.3444                 0.3464                 0.8981

                     73                     74                     75
                      A                      A                      A
 Frequencies --   1437.9055              1438.0796              1438.2402
 Red. masses --      2.9854                 2.9935                 2.9875
 Frc consts  --      3.6368                 3.6475                 3.6409
 IR Inten    --      6.8773                 2.4976                 2.7470

                     76                     77                     78
                      A                      A                      A
 Frequencies --   1545.5697              1545.7050              1546.5164
 Red. masses --      2.4080                 2.4052                 2.4445
 Frc consts  --      3.3890                 3.3857                 3.4446
 IR Inten    --    116.5227               116.4327                24.2547

                     79                     80                     81
                      A                      A                      A
 Frequencies --   1633.9424              1633.9646              1633.9892
 Red. masses --      6.9663                 6.9610                 6.9602
 Frc consts  --     10.9579                10.9498                10.9490
 IR Inten    --      9.7917                12.7426                12.2408

                     82                     83                     84
                      A                      A                      A
 Frequencies --   1653.5279              1653.5506              1654.3860
 Red. masses --      5.8084                 5.8066                 5.8790
 Frc consts  --      9.3568                 9.3542                 9.4804
 IR Inten    --     82.7563                82.7024                22.5404

                     85                     86                     87
                      A                      A                      A
 Frequencies --   3188.7540              3188.8644              3188.9059
 Red. masses --      1.0892                 1.0892                 1.0892
 Frc consts  --      6.5254                 6.5257                 6.5257
 IR Inten    --      5.5174                 4.8596                 3.0248

                     88                     89                     90
                      A                      A                      A
 Frequencies --   3205.9427              3205.9935              3206.6227
 Red. masses --      1.0878                 1.0878                 1.0879
 Frc consts  --      6.5872                 6.5874                 6.5905
 IR Inten    --      2.0363                 2.0503                 0.3432

                     91                     92                     93
                      A                      A                      A
 Frequencies --   3221.9341              3221.9843              3222.1866
 Red. masses --      1.0942                 1.0942                 1.0940
 Frc consts  --      6.6924                 6.6924                 6.6923
 IR Inten    --      3.0176                 3.0831                11.6316

                     94                     95                     96
                      A                      A                      A
 Frequencies --   3222.5899              3222.6600              3222.8827
 Red. masses --      1.0937                 1.0936                 1.0940
 Frc consts  --      6.6921                 6.6920                 6.6948
 IR Inten    --     12.3116                12.2958                 0.4333

 - Thermochemistry -
 -------------------
 Temperature   298.150 Kelvin.  Pressure   1.00000 Atm.
 Atom     1 has atomic number  6 and mass  12.00000

 Molecular mass:   316.06287 amu.
 Principal axes and moments of inertia in atomic units:
                           1         2         3
     Eigenvalues --  8316.592988319.97499**********
           X            0.99947  -0.03259   0.00002
           Y            0.03259   0.99947   0.00001
           Z           -0.00002  -0.00001   1.00000
 This molecule is an asymmetric top.
 Rotational symmetry number  1.
 Warning -- assumption of classical behavior for rotation
           may cause significant error
 Rotational temperatures (Kelvin)      0.01041     0.01041     0.00597
 Rotational constants (GHZ):           0.21700     0.21692     0.12430
 Zero-point vibrational energy     655285.0 (Joules/Mol)
                                  156.61686 (Kcal/Mol)
 Warning -- explicit consideration of  28 degrees of freedom as
           vibrations may cause significant error
 Vibrational temperatures:     33.57    34.58    53.75    54.03    57.91
          (Kelvin)             72.78   191.37   209.25   209.75   300.69
                              315.21   315.60   443.02   483.39   483.60
                              571.41   581.40   581.49   605.24   605.30
                              611.08   626.02   626.10   666.93   766.84
                              767.03   770.51   874.86   906.43   906.51
                              932.66   932.91   932.94  1028.93  1029.60
                             1029.74  1202.41  1202.52  1204.02  1207.88
                             1207.95  1208.31  1213.86  1213.94  1214.43
                             1379.26  1379.32  1381.01  1395.43  1395.53
                             1400.53  1488.71  1488.86  1489.40  1586.79
                             1587.19  1595.33  1622.33  1622.53  1622.83
                             1719.68  1720.18  1725.81  1849.30  1849.49
                             1850.57  1905.14  1909.72  1910.27  1923.26
                             1923.45  1923.85  2068.83  2069.08  2069.31
                             2223.73  2223.92  2225.09  2350.88  2350.91
                             2350.95  2379.06  2379.09  2380.29  4587.91
                             4588.06  4588.12  4612.64  4612.71  4613.61
                             4635.64  4635.72  4636.01  4636.59  4636.69
                             4637.01

 Zero-point correction=                           0.249585 (Hartree/Particle)
 Thermal correction to Energy=                    0.268017
 Thermal correction to Enthalpy=                  0.268961
 Thermal correction to Gibbs Free Energy=         0.199481
 Sum of electronic and zero-point Energies=          -1333.749391
 Sum of electronic and thermal Energies=             -1333.730958
 Sum of electronic and thermal Enthalpies=           -1333.730014
 Sum of electronic and thermal Free Energies=        -1333.799494

                     E (Thermal)             CV                S
                      KCal/Mol        Cal/Mol-Kelvin    Cal/Mol-Kelvin
 Total                  168.183             71.395            146.233
 Electronic               0.000              0.000              0.000
 Translational            0.889              2.981             43.148
 Rotational               0.889              2.981             35.262
 Vibrational            166.406             65.434             67.823
 Vibration     1          0.593              1.985              6.328
 Vibration     2          0.593              1.985              6.270
 Vibration     3          0.594              1.982              5.394
 Vibration     4          0.594              1.982              5.384
 Vibration     5          0.594              1.981              5.247
 Vibration     6          0.595              1.977              4.794
 Vibration     7          0.613              1.920              2.902
 Vibration     8          0.617              1.908              2.731
 Vibration     9          0.617              1.907              2.727
 Vibration    10          0.642              1.827              2.052
 Vibration    11          0.647              1.812              1.967
 Vibration    12          0.647              1.812              1.964
 Vibration    13          0.698              1.659              1.374
 Vibration    14          0.717              1.604              1.231
 Vibration    15          0.717              1.603              1.231
 Vibration    16          0.764              1.476              0.973
 Vibration    17          0.769              1.461              0.948
 Vibration    18          0.769              1.461              0.947
 Vibration    19          0.783              1.425              0.890
 Vibration    20          0.783              1.425              0.890
 Vibration    21          0.787              1.416              0.876
 Vibration    22          0.796              1.394              0.842
 Vibration    23          0.796              1.394              0.842
 Vibration    24          0.821              1.331              0.756
 Vibration    25          0.888              1.177              0.581
 Vibration    26          0.888              1.177              0.580
 Vibration    27          0.891              1.171              0.575
 Vibration    28          0.967              1.015              0.436

                           ! Non-Optimized Parameters !
 Normal termination of Gaussian 16 at Sun Aug 23 15:24:43 2020.
 Gaussian 16:  ES64L-G16RevA.03 25-Dec-2016

 ----------------------------------------------------------------------
 # TD(NStates=10, Root=1) B3LYP/6-31G* scf=qc volume pop=NPA density=cu
 rrent Geom=AllCheck Guess=Read
 ----------------------------------------------------------------------

 Structure from the checkpoint file:  "phosphine_5_conf303.chk"
 -------------------
 Title Card Required
 -------------------
 Charge =  0 Multiplicity = 1

                         Standard orientation:
 ---------------------------------------------------------------------
 Center     Atomic      Atomic             Coordinates (Angstroms)
 Number     Number       Type             X           Y           Z
 ---------------------------------------------------------------------
      1          6           0       -3.678928   -1.704196    0.697798
      2          6           0       -2.601015   -0.988152    1.215202
      3          6           0       -1.350951   -0.981424    0.571869
      4          6           0       -1.201969   -1.736985   -0.602011
      5          6           0       -2.267254   -2.469268   -1.127942
      6          6           0       -3.490556   -2.436426   -0.469198
      7          9           0       -4.524040   -3.141810   -0.972527
      8         15           0        0.000097   -0.000273    1.374791
      9          6           0        1.525410   -0.679355    0.571786
     10          6           0        2.101999   -0.175331   -0.604914
     11          6           0        3.268838   -0.731256   -1.131258
     12          6           0        3.855401   -1.803741   -0.469987
     13          6           0        3.318798   -2.330089    0.699844
     14          6           0        2.159555   -1.755166    1.217535
     15          9           0        4.983105   -2.345551   -0.973677
     16          6           0       -0.174235    1.660269    0.571774
     17          6           0        0.444015    2.746565    1.215415
     18          6           0        0.362585    4.037989    0.697791
     19          6           0       -0.364985    4.240485   -0.469750
     20          6           0       -1.004123    3.197117   -1.128831
     21          6           0       -0.902364    1.908538   -0.602646
     22          9           0       -0.459373    5.488103   -0.973278
     23          1           0       -4.647457   -1.712346    1.187120
     24          1           0       -2.733066   -0.428405    2.137920
     25          1           0       -0.243853   -1.762074   -1.111859
     26          1           0       -2.161020   -3.059344   -2.032640
     27          1           0        1.641957    0.664434   -1.116514
     28          1           0        3.724290   -0.346375   -2.038113
     29          1           0        3.812727   -3.162148    1.191029
     30          1           0        1.743310   -2.147064    2.142363
     31          1           0        0.994210    2.581418    2.138546
     32          1           0        0.839025    4.881124    1.187356
     33          1           0       -1.567725    3.399785   -2.033945
     34          1           0       -1.402411    1.090975   -1.112659
 ---------------------------------------------------------------------

 SCF Done:  E(RB3LYP) =  -1333.99897543     a.u. after    1 cycles

 Excitation energies and oscillator strengths:

 Excited State   1:      Singlet-A      4.5733 eV  271.10 nm  f=0.1353  <S**2>=0.000
      81 -> 82         0.69366
 This state for optimization and/or second-order correction.
 Total Energy, E(TD-HF/TD-DFT) =  -1333.83090932
 Copying the excited state density for this state as the 1-particle RhoCI density.

 Excited State   2:      Singlet-A      4.5751 eV  271.00 nm  f=0.1359  <S**2>=0.000
      81 -> 83         0.69354

 Excited State   3:      Singlet-A      4.5856 eV  270.38 nm  f=0.0091  <S**2>=0.000
      81 -> 84         0.68905

 Excited State   4:      Singlet-A      4.9050 eV  252.77 nm  f=0.0017  <S**2>=0.000
      81 -> 85         0.67633

 Excited State   5:      Singlet-A      4.9059 eV  252.73 nm  f=0.0017  <S**2>=0.000
      81 -> 86         0.67613

 Excited State   6:      Singlet-A      5.2389 eV  236.66 nm  f=0.0075  <S**2>=0.000
      79 -> 82         0.10138
      80 -> 83        -0.10185
      81 -> 87         0.67235

 Excited State   7:      Singlet-A      5.4172 eV  228.87 nm  f=0.0000  <S**2>=0.000
      75 -> 84        -0.14228
      77 -> 82        -0.17610
      78 -> 83        -0.16568
      79 -> 82         0.29352
      79 -> 83        -0.28331
      79 -> 85         0.14958
      80 -> 82        -0.28244
      80 -> 83        -0.29091
      80 -> 86        -0.14281

 Excited State   8:      Singlet-A      5.4451 eV  227.70 nm  f=0.0020  <S**2>=0.000
      76 -> 82         0.21091
      77 -> 82         0.13787
      77 -> 83         0.12461
      77 -> 87         0.11900
      78 -> 82         0.12678
      78 -> 83        -0.14771
      79 -> 84         0.29035
      79 -> 85        -0.14939
      80 -> 84         0.40888
      80 -> 86        -0.15662
      81 -> 85        -0.12203

 Excited State   9:      Singlet-A      5.4457 eV  227.67 nm  f=0.0021  <S**2>=0.000
      76 -> 83         0.20939
      77 -> 82         0.12240
      77 -> 83        -0.14175
      78 -> 82        -0.14172
      78 -> 83        -0.12791
      78 -> 87         0.11900
      79 -> 84         0.40658
      79 -> 86         0.15327
      80 -> 84        -0.29417
      80 -> 85        -0.15293
      81 -> 86        -0.12261

 Excited State  10:      Singlet-A      5.6625 eV  218.96 nm  f=0.0012  <S**2>=0.000
      75 -> 84        -0.16507
      76 -> 84        -0.10224
      77 -> 82        -0.24312
      78 -> 83        -0.23604
      79 -> 82        -0.11029
      79 -> 83         0.24563
      79 -> 85         0.22434
      79 -> 86         0.11371
      80 -> 82         0.31927
      80 -> 85         0.11412
      80 -> 86        -0.23334

 The electronic state is 1-A.
 Alpha  occ. eigenvalues --  -77.09285 -24.70934 -24.70932 -24.70932 -10.27931
 Alpha  occ. eigenvalues --  -10.27927 -10.27927 -10.20803 -10.20801 -10.20800
 Alpha  occ. eigenvalues --  -10.20702 -10.20699 -10.20699 -10.20479 -10.20478
 Alpha  occ. eigenvalues --  -10.20478 -10.20318 -10.20315 -10.20315 -10.20310
 Alpha  occ. eigenvalues --  -10.20308 -10.20308  -6.55987  -4.72248  -4.72248
 Alpha  occ. eigenvalues --   -4.71744  -1.22113  -1.22110  -1.22110  -0.87208
 Alpha  occ. eigenvalues --   -0.86556  -0.86554  -0.77802  -0.76322  -0.76286
 Alpha  occ. eigenvalues --   -0.76285  -0.74868  -0.74866  -0.65458  -0.63137
 Alpha  occ. eigenvalues --   -0.62959  -0.62958  -0.60998  -0.60997  -0.57074
 Alpha  occ. eigenvalues --   -0.54666  -0.54664  -0.54254  -0.49447  -0.49445
 Alpha  occ. eigenvalues --   -0.49381  -0.48019  -0.48018  -0.46310  -0.46308
 Alpha  occ. eigenvalues --   -0.46296  -0.45864  -0.44921  -0.44921  -0.43857
 Alpha  occ. eigenvalues --   -0.43706  -0.43705  -0.42082  -0.40157  -0.40108
 Alpha  occ. eigenvalues --   -0.40107  -0.37160  -0.37158  -0.36439  -0.34998
 Alpha  occ. eigenvalues --   -0.34996  -0.34951  -0.33923  -0.33923  -0.27233
 Alpha  occ. eigenvalues --   -0.26849  -0.26600  -0.26597  -0.25426  -0.25421
 Alpha  occ. eigenvalues --   -0.21916
 Alpha virt. eigenvalues --   -0.02512  -0.02507  -0.02415  -0.01174  -0.01170
 Alpha virt. eigenvalues --   -0.00311   0.05880   0.05889   0.08467   0.10088
 Alpha virt. eigenvalues --    0.10089   0.12849   0.13529   0.13530   0.14051

 Mulliken charges:
               1
     1  C   -0.180113
     2  C   -0.177757
     3  C   -0.104077
     4  C   -0.153298
     5  C   -0.190509
     6  C    0.370978
     7  F   -0.290800
     8  P    0.435478
     9  C   -0.125046
    10  C   -0.186915
    11  C   -0.180276
    12  C    0.339018
    13  C   -0.195002
    14  C   -0.165754
    15  F   -0.305415
    16  C   -0.080363
    17  C   -0.154586
    18  C   -0.190625
    19  C    0.383675
    20  C   -0.181539
    21  C   -0.163950
    22  F   -0.285710
    23  H    0.150732
    24  H    0.142084
    25  H    0.173065
    26  H    0.154785
    27  H    0.128143
    28  H    0.136756
    29  H    0.133719
    30  H    0.127623
    31  H    0.155907
    32  H    0.157214
    33  H    0.159591
    34  H    0.162965
 Sum of Mulliken charges =  -0.00000

 Dipole moment (field-independent basis, Debye):
    X=             -2.5827    Y=              1.9738    Z=              1.4564  Tot=              3.5619
 Quadrupole moment (field-independent basis, Debye-Ang):
   XX=           -144.6728   YY=           -134.3518   ZZ=           -121.8357
   XY=              3.6702   XZ=              0.8579   YZ=              0.2549

 Summary of Natural Population Analysis:

                                       Natural Population
                Natural  -----------------------------------------------
    Atom  No    Charge         Core      Valence    Rydberg      Total
 -----------------------------------------------------------------------
      C    1   -0.29449      1.99899     4.28069    0.01481     6.29449
      C    2   -0.22391      1.99903     4.20869    0.01619     6.22391
      C    3   -0.43745      1.99890     4.41202    0.02653     6.43745
      C    4   -0.19571      1.99901     4.18034    0.01637     6.19571
      C    5   -0.30759      1.99898     4.29342    0.01519     6.30759
      C    6    0.42215      1.99844     3.55187    0.02754     5.57785
      F    7   -0.32712      1.99994     7.32162    0.00557     9.32712
      P    8    1.21003      9.99756     3.74085    0.05156    13.78997
      C    9   -0.48585      1.99887     4.46141    0.02557     6.48585
      C   10   -0.27106      1.99900     4.25344    0.01863     6.27106
      C   11   -0.28690      1.99899     4.27297    0.01493     6.28690
      C   12    0.37046      1.99844     3.60303    0.02807     5.62954
      C   13   -0.32157      1.99900     4.30662    0.01596     6.32157
      C   14   -0.20513      1.99902     4.19027    0.01583     6.20513
      F   15   -0.34000      1.99994     7.33458    0.00548     9.34000
      C   16   -0.39474      1.99890     4.37153    0.02432     6.39474
      C   17   -0.18373      1.99903     4.16956    0.01514     6.18373
      C   18   -0.31496      1.99899     4.30047    0.01550     6.31496
      C   19    0.44382      1.99844     3.53052    0.02723     5.55618
      C   20   -0.29197      1.99898     4.27829    0.01469     6.29197
      C   21   -0.22325      1.99901     4.20731    0.01693     6.22325
      F   22   -0.32254      1.99994     7.31702    0.00557     9.32254
      H   23    0.25283      0.00000     0.74593    0.00123     0.74717
      H   24    0.23859      0.00000     0.76041    0.00100     0.76141
      H   25    0.25961      0.00000     0.73891    0.00148     0.74039
      H   26    0.25574      0.00000     0.74307    0.00119     0.74426
      H   27    0.23492      0.00000     0.76355    0.00153     0.76508
      H   28    0.24677      0.00000     0.75202    0.00121     0.75323
      H   29    0.24542      0.00000     0.75338    0.00120     0.75458
      H   30    0.23165      0.00000     0.76738    0.00097     0.76835
      H   31    0.24703      0.00000     0.75173    0.00124     0.75297
      H   32    0.25666      0.00000     0.74218    0.00116     0.74334
      H   33    0.25771      0.00000     0.74110    0.00119     0.74229
      H   34    0.25459      0.00000     0.74418    0.00123     0.74541
 =======================================================================
   * Total *    0.00000     51.97740   109.59037    0.43223   162.00000

 Normal termination of Gaussian 16 at Sun Aug 23 15:37:34 2020.
