 Gaussian 16, Revision A.03,

 ---------------------------------
 # opt=CalcAll B3LYP/6-31G* scf=qc
 ---------------------------------

 -------------------
 Title Card Required
 -------------------
 Symbolic Z-matrix:
 Charge =  0 Multiplicity = 1

 SCF Done:  E(RB3LYP) =  -1333.98217700     a.u. after    7 cycles
 SCF Done:  E(RB3LYP) =  -1333.99456210     a.u. after   17 cycles
 SCF Done:  E(RB3LYP) =  -1333.99681654     a.u. after   19 cycles
 SCF Done:  E(RB3LYP) =  -1333.99825464     a.u. after   15 cycles
 SCF Done:  E(RB3LYP) =  -1333.99884566     a.u. after   15 cycles
 SCF Done:  E(RB3LYP) =  -1333.99892550     a.u. after   11 cycles
 SCF Done:  E(RB3LYP) =  -1333.99896259     a.u. after    9 cycles
 SCF Done:  E(RB3LYP) =  -1333.99897157     a.u. after   11 cycles
 SCF Done:  E(RB3LYP) =  -1333.99897373     a.u. after    4 cycles
 SCF Done:  E(RB3LYP) =  -1333.99897657     a.u. after    4 cycles
 SCF Done:  E(RB3LYP) =  -1333.99897739     a.u. after    2 cycles
 SCF Done:  E(RB3LYP) =  -1333.99897721     a.u. after    2 cycles
 SCF Done:  E(RB3LYP) =  -1333.99897533     a.u. after    2 cycles
 SCF Done:  E(RB3LYP) =  -1333.99897594     a.u. after    2 cycles
 SCF Done:  E(RB3LYP) =  -1333.99897697     a.u. after    2 cycles
 SCF Done:  E(RB3LYP) =  -1333.99897627     a.u. after    2 cycles
 SCF Done:  E(RB3LYP) =  -1333.99897699     a.u. after    2 cycles
 SCF Done:  E(RB3LYP) =  -1333.99897646     a.u. after    2 cycles
 Optimization completed.
    -- Stationary point found.
 Normal termination of Gaussian 16 at Sun Aug 23 15:46:21 2020.

 ----------------------------------------------------------------------
 # freq B3LYP/6-31G* scf=qc volume NMR pop=NPA density=current Geom=All
 Check Guess=Read
 ----------------------------------------------------------------------

 Structure from the checkpoint file:  "phosphine_5_conf22.chk"
 -------------------
 Title Card Required
 -------------------
 Charge =  0 Multiplicity = 1

 SCF Done:  E(RB3LYP) =  -1333.99897646     a.u. after    1 cycles

      1  C    Isotropic =    79.9185   Anisotropy =   137.4249

      2  C    Isotropic =    59.0085   Anisotropy =   162.7443

      3  C    Isotropic =    61.5944   Anisotropy =   173.5246

      4  C    Isotropic =    60.6818   Anisotropy =   171.8853

      5  C    Isotropic =    80.0691   Anisotropy =   136.7153

      6  C    Isotropic =    32.6542   Anisotropy =    98.8381

      7  F    Isotropic =   295.7787   Anisotropy =   113.1049

      8  P    Isotropic =   366.1296   Anisotropy =    39.7311

      9  C    Isotropic =    61.6617   Anisotropy =   173.4794

     10  C    Isotropic =    59.0089   Anisotropy =   162.7731

     11  C    Isotropic =    79.9333   Anisotropy =   137.4237

     12  C    Isotropic =    32.6641   Anisotropy =    98.8316

     13  C    Isotropic =    80.0624   Anisotropy =   136.7307

     14  C    Isotropic =    60.6865   Anisotropy =   171.9425

     15  F    Isotropic =   295.7843   Anisotropy =   113.0755

     16  C    Isotropic =    61.5831   Anisotropy =   173.5324

     17  C    Isotropic =    59.0913   Anisotropy =   162.8203

     18  C    Isotropic =    79.9438   Anisotropy =   137.4509

     19  C    Isotropic =    32.6799   Anisotropy =    98.7881

     20  C    Isotropic =    80.0827   Anisotropy =   136.7446

     21  C    Isotropic =    60.7707   Anisotropy =   171.8389

     22  F    Isotropic =   295.8212   Anisotropy =   112.9184

     23  H    Isotropic =    25.3566   Anisotropy =     4.2616

     24  H    Isotropic =    24.6165   Anisotropy =     8.9148

     25  H    Isotropic =    25.3621   Anisotropy =    12.0029

     26  H    Isotropic =    25.4675   Anisotropy =     5.7332

     27  H    Isotropic =    24.6173   Anisotropy =     8.9146

     28  H    Isotropic =    25.3586   Anisotropy =     4.2552

     29  H    Isotropic =    25.4630   Anisotropy =     5.7384

     30  H    Isotropic =    25.3574   Anisotropy =    12.0167

     31  H    Isotropic =    24.6239   Anisotropy =     8.9330

     32  H    Isotropic =    25.3611   Anisotropy =     4.2560

     33  H    Isotropic =    25.4671   Anisotropy =     5.7396

     34  H    Isotropic =    25.3693   Anisotropy =    12.0386

  Exact polarizability: 226.306   0.142 225.965   0.055   0.166 167.782
 Approx polarizability: 338.046   0.314 337.411   0.119   0.377 314.993

                      1                      2                      3
                      A                      A                      A
 Frequencies --     23.4307                24.8519                37.4286
 Red. masses --      4.0702                 4.0876                 8.9448
 Frc consts  --      0.0013                 0.0015                 0.0074
 IR Inten    --      0.2477                 0.2567                 0.1022

                      4                      5                      6
                      A                      A                      A
 Frequencies --     37.6100                40.4993                50.6075
 Red. masses --      9.0219                 3.7438                 9.9516
 Frc consts  --      0.0075                 0.0036                 0.0150
 IR Inten    --      0.0922                 0.0057                 0.1145

                      7                      8                      9
                      A                      A                      A
 Frequencies --    133.0126               145.4954               145.8042
 Red. masses --      8.0544                 8.3699                 8.3758
 Frc consts  --      0.0840                 0.1044                 0.1049
 IR Inten    --      0.0235                 0.5207                 0.5142

                     10                     11                     12
                      A                      A                      A
 Frequencies --    209.0160               218.8520               219.5177
 Red. masses --      8.0485                 6.9851                 6.9951
 Frc consts  --      0.2072                 0.1971                 0.1986
 IR Inten    --      0.2902                 0.5293                 0.5281

                     13                     14                     15
                      A                      A                      A
 Frequencies --    307.9511               336.0044               336.1229
 Red. masses --      8.4309                 8.3166                 8.3038
 Frc consts  --      0.4711                 0.5532                 0.5527
 IR Inten    --      1.0310                 0.0452                 0.0434

                     16                     17                     18
                      A                      A                      A
 Frequencies --    397.1580               404.0955               404.1838
 Red. masses --      7.7398                 8.0320                 8.0188
 Frc consts  --      0.7193                 0.7728                 0.7718
 IR Inten    --      0.3038                10.1040                10.1116

                     19                     20                     21
                      A                      A                      A
 Frequencies --    420.6625               420.7603               424.7511
 Red. masses --      3.2846                 3.2764                 3.1356
 Frc consts  --      0.3425                 0.3418                 0.3333
 IR Inten    --      1.1657                 1.0764                 0.0246

                     22                     23                     24
                      A                      A                      A
 Frequencies --    434.9900               435.2492               463.5972
 Red. masses --      6.1412                 6.1544                 6.6461
 Frc consts  --      0.6846                 0.6869                 0.8416
 IR Inten    --     18.8902                19.0793                 7.4000

                     25                     26                     27
                      A                      A                      A
 Frequencies --    533.0179               533.1776               535.5797
 Red. masses --      2.8108                 2.8119                 2.9069
 Frc consts  --      0.4705                 0.4710                 0.4913
 IR Inten    --     21.9226                21.8074                13.4902

                     28                     29                     30
                      A                      A                      A
 Frequencies --    608.0771               629.9982               630.0493
 Red. masses --      7.9093                 7.8318                 7.8286
 Frc consts  --      1.7231                 1.8314                 1.8310
 IR Inten    --      0.0096                 0.0364                 0.0392

                     31                     32                     33
                      A                      A                      A
 Frequencies --    648.2402               648.3752               648.4553
 Red. masses --      7.2772                 7.3785                 7.3810
 Frc consts  --      1.8017                 1.8276                 1.8286
 IR Inten    --      0.0050                 0.1272                 0.1297

                     34                     35                     36
                      A                      A                      A
 Frequencies --    715.1517               715.6503               715.7389
 Red. masses --      4.8100                 4.8251                 4.8310
 Frc consts  --      1.4494                 1.4560                 1.4581
 IR Inten    --      1.0863                 3.9425                 3.9319

                     37                     38                     39
                      A                      A                      A
 Frequencies --    835.7451               835.8149               836.8395
 Red. masses --      1.2633                 1.2616                 1.3273
 Frc consts  --      0.5199                 0.5193                 0.5476
 IR Inten    --      0.5356                 0.4481                11.3610

                     40                     41                     42
                      A                      A                      A
 Frequencies --    839.5446               839.5731               839.8186
 Red. masses --      3.2638                 3.2765                 4.0223
 Frc consts  --      1.3554                 1.3608                 1.6714
 IR Inten    --     61.9749                61.2688                18.7095

                     43                     44                     45
                      A                      A                      A
 Frequencies --    843.6483               843.7707               844.1193
 Red. masses --      1.9997                 1.9678                 1.6807
 Frc consts  --      0.8386                 0.8254                 0.7056
 IR Inten    --      9.9850                10.2415                12.0723

                     46                     47                     48
                      A                      A                      A
 Frequencies --    958.6578               958.7349               959.8651
 Red. masses --      1.2560                 1.2560                 1.2588
 Frc consts  --      0.6801                 0.6802                 0.6833
 IR Inten    --      0.1675                 0.1645                 0.3302

                     49                     50                     51
                      A                      A                      A
 Frequencies --    969.9405               969.9739               973.5115
 Red. masses --      1.3353                 1.3352                 1.3192
 Frc consts  --      0.7402                 0.7402                 0.7366
 IR Inten    --      0.0354                 0.0331                 0.3105

                     52                     53                     54
                      A                      A                      A
 Frequencies --   1034.7201              1034.8125              1035.1911
 Red. masses --      3.0269                 3.0330                 3.0247
 Frc consts  --      1.9094                 1.9136                 1.9097
 IR Inten    --      7.9576                 7.8763                 0.1415

                     55                     56                     57
                      A                      A                      A
 Frequencies --   1102.9049              1103.1825              1108.8247
 Red. masses --      3.6670                 3.6666                 3.5536
 Frc consts  --      2.6281                 2.6291                 2.5742
 IR Inten    --     19.3511                19.1156                 1.8961

                     58                     59                     60
                      A                      A                      A
 Frequencies --   1127.5341              1127.7626              1127.9755
 Red. masses --      1.3306                 1.3302                 1.3294
 Frc consts  --      0.9967                 0.9968                 0.9965
 IR Inten    --      0.9319                 2.3039                 5.7985

                     61                     62                     63
                      A                      A                      A
 Frequencies --   1195.2234              1195.6762              1199.5218
 Red. masses --      1.1835                 1.1858                 1.1805
 Frc consts  --      0.9962                 0.9988                 1.0008
 IR Inten    --     60.6326                61.1741                 2.6640

                     64                     65                     66
                      A                      A                      A
 Frequencies --   1285.3224              1285.4923              1286.2153
 Red. masses --      3.7558                 3.7409                 3.7826
 Frc consts  --      3.6558                 3.6422                 3.6870
 IR Inten    --    167.5265               165.9027                38.9871

                     67                     68                     69
                      A                      A                      A
 Frequencies --   1324.1753              1327.2829              1327.8529
 Red. masses --      2.7474                 2.2252                 2.3471
 Frc consts  --      2.8383                 2.3097                 2.4383
 IR Inten    --      8.7971                 3.8884                 3.8740

                     70                     71                     72
                      A                      A                      A
 Frequencies --   1336.7034              1336.9203              1337.2022
 Red. masses --      2.3249                 2.1959                 1.9446
 Frc consts  --      2.4475                 2.3124                 2.0487
 IR Inten    --      0.3416                 0.4153                 0.8288

                     73                     74                     75
                      A                      A                      A
 Frequencies --   1437.9379              1438.0671              1438.2918
 Red. masses --      2.9850                 2.9933                 2.9860
 Frc consts  --      3.6364                 3.6472                 3.6395
 IR Inten    --      6.8843                 2.5913                 2.6506

                     76                     77                     78
                      A                      A                      A
 Frequencies --   1545.5685              1545.7556              1546.5403
 Red. masses --      2.4083                 2.4043                 2.4440
 Frc consts  --      3.3895                 3.3847                 3.4441
 IR Inten    --    116.3368               116.3765                24.5088

                     79                     80                     81
                      A                      A                      A
 Frequencies --   1633.9210              1633.9807              1634.0188
 Red. masses --      6.9691                 6.9569                 6.9596
 Frc consts  --     10.9619                10.9436                10.9484
 IR Inten    --      9.1976                14.8190                10.7569

                     82                     83                     84
                      A                      A                      A
 Frequencies --   1653.5154              1653.5733              1654.3931
 Red. masses --      5.8085                 5.8056                 5.8786
 Frc consts  --      9.3568                 9.3529                 9.4798
 IR Inten    --     82.8610                82.5385                22.6015

                     85                     86                     87
                      A                      A                      A
 Frequencies --   3188.7739              3188.8624              3188.9666
 Red. masses --      1.0892                 1.0892                 1.0892
 Frc consts  --      6.5254                 6.5257                 6.5260
 IR Inten    --      5.5633                 4.1310                 3.6953

                     88                     89                     90
                      A                      A                      A
 Frequencies --   3205.7659              3205.8741              3206.4886
 Red. masses --      1.0878                 1.0878                 1.0879
 Frc consts  --      6.5866                 6.5870                 6.5900
 IR Inten    --      2.0207                 2.0176                 0.3680

                     91                     92                     93
                      A                      A                      A
 Frequencies --   3221.8645              3221.9627              3222.1626
 Red. masses --      1.0942                 1.0942                 1.0940
 Frc consts  --      6.6921                 6.6923                 6.6923
 IR Inten    --      3.4769                 3.0706                11.5407

                     94                     95                     96
                      A                      A                      A
 Frequencies --   3222.6055              3222.6368              3222.8637
 Red. masses --      1.0937                 1.0936                 1.0939
 Frc consts  --      6.6918                 6.6919                 6.6946
 IR Inten    --     12.1751                12.3301                 0.2098

 - Thermochemistry -
 -------------------
 Temperature   298.150 Kelvin.  Pressure   1.00000 Atm.
 Atom     1 has atomic number  6 and mass  12.00000

 Molecular mass:   316.06287 amu.
 Principal axes and moments of inertia in atomic units:
                           1         2         3
     Eigenvalues --  8313.380088323.51021**********
           X            0.99967   0.02580   0.00002
           Y           -0.02580   0.99967   0.00004
           Z           -0.00002  -0.00004   1.00000
 This molecule is an asymmetric top.
 Rotational symmetry number  1.
 Warning -- assumption of classical behavior for rotation
           may cause significant error
 Rotational temperatures (Kelvin)      0.01042     0.01041     0.00597
 Rotational constants (GHZ):           0.21709     0.21682     0.12431
 Zero-point vibrational energy     655300.0 (Joules/Mol)
                                  156.62046 (Kcal/Mol)
 Warning -- explicit consideration of  28 degrees of freedom as
           vibrations may cause significant error
 Vibrational temperatures:     33.71    35.76    53.85    54.11    58.27
          (Kelvin)             72.81   191.38   209.34   209.78   300.73
                              314.88   315.84   443.07   483.44   483.61
                              571.42   581.40   581.53   605.24   605.38
                              611.12   625.85   626.23   667.01   766.89
                              767.12   770.58   874.89   906.43   906.50
                              932.67   932.87   932.98  1028.94  1029.66
                             1029.79  1202.45  1202.55  1204.03  1207.92
                             1207.96  1208.31  1213.82  1214.00  1214.50
                             1379.29  1379.41  1381.03  1395.53  1395.58
                             1400.67  1488.73  1488.86  1489.41  1586.83
                             1587.23  1595.35  1622.27  1622.60  1622.91
                             1719.66  1720.31  1725.84  1849.29  1849.54
                             1850.58  1905.19  1909.66  1910.48  1923.22
                             1923.53  1923.94  2068.87  2069.06  2069.38
                             2223.73  2224.00  2225.13  2350.85  2350.93
                             2350.99  2379.04  2379.12  2380.30  4587.93
                             4588.06  4588.21  4612.38  4612.54  4613.42
                             4635.54  4635.69  4635.97  4636.61  4636.66
                             4636.98

 Zero-point correction=                           0.249591 (Hartree/Particle)
 Thermal correction to Energy=                    0.268019
 Thermal correction to Enthalpy=                  0.268964
 Thermal correction to Gibbs Free Energy=         0.199529
 Sum of electronic and zero-point Energies=          -1333.749386
 Sum of electronic and thermal Energies=             -1333.730957
 Sum of electronic and thermal Enthalpies=           -1333.730013
 Sum of electronic and thermal Free Energies=        -1333.799447

                     E (Thermal)             CV                S
                      KCal/Mol        Cal/Mol-Kelvin    Cal/Mol-Kelvin
 Total                  168.185             71.393            146.136
 Electronic               0.000              0.000              0.000
 Translational            0.889              2.981             43.148
 Rotational               0.889              2.981             35.262
 Vibrational            166.407             65.431             67.726
 Vibration     1          0.593              1.985              6.320
 Vibration     2          0.593              1.985              6.203
 Vibration     3          0.594              1.982              5.391
 Vibration     4          0.594              1.982              5.381
 Vibration     5          0.594              1.981              5.235
 Vibration     6          0.595              1.977              4.794
 Vibration     7          0.613              1.920              2.902
 Vibration     8          0.617              1.908              2.730
 Vibration     9          0.617              1.907              2.726
 Vibration    10          0.642              1.827              2.052
 Vibration    11          0.647              1.812              1.969
 Vibration    12          0.647              1.811              1.963
 Vibration    13          0.698              1.659              1.373
 Vibration    14          0.717              1.604              1.231
 Vibration    15          0.717              1.603              1.230
 Vibration    16          0.764              1.476              0.973
 Vibration    17          0.769              1.461              0.948
 Vibration    18          0.769              1.461              0.947
 Vibration    19          0.783              1.425              0.890
 Vibration    20          0.783              1.425              0.889
 Vibration    21          0.787              1.416              0.876
 Vibration    22          0.796              1.394              0.843
 Vibration    23          0.796              1.393              0.842
 Vibration    24          0.821              1.331              0.756
 Vibration    25          0.888              1.177              0.581
 Vibration    26          0.888              1.177              0.580
 Vibration    27          0.891              1.171              0.575
 Vibration    28          0.967              1.015              0.436

                           ! Non-Optimized Parameters !
 Normal termination of Gaussian 16 at Sun Aug 23 16:01:17 2020.
 Gaussian 16:  ES64L-G16RevA.03 25-Dec-2016

 ----------------------------------------------------------------------
 # TD(NStates=10, Root=1) B3LYP/6-31G* scf=qc volume pop=NPA density=cu
 rrent Geom=AllCheck Guess=Read
 ----------------------------------------------------------------------

 Structure from the checkpoint file:  "phosphine_5_conf23.chk"
 -------------------
 Title Card Required
 -------------------
 Charge =  0 Multiplicity = 1

                         Standard orientation:
 ---------------------------------------------------------------------
 Center     Atomic      Atomic             Coordinates (Angstroms)
 Number     Number       Type             X           Y           Z
 ---------------------------------------------------------------------
      1          6           0        1.672120    3.694007    0.700520
      2          6           0        0.966713    2.609292    1.218399
      3          6           0        0.966276    1.361061    0.571591
      4          6           0        1.716979    1.221062   -0.606541
      5          6           0        2.438511    2.293281   -1.133157
      6          6           0        2.399825    3.514431   -0.470664
      7          9           0        3.094970    4.554562   -0.974518
      8         15           0       -0.000900    0.000253    1.374943
      9          6           0       -1.663163    0.156826    0.571875
     10          6           0       -2.743584   -0.468865    1.218169
     11          6           0       -4.035860   -0.401143    0.700659
     12          6           0       -4.245248    0.320116   -0.469564
     13          6           0       -3.207918    0.966259   -1.131398
     14          6           0       -1.918346    0.878244   -0.605225
     15          9           0       -5.493786    0.401225   -0.973095
     16          6           0        0.695134   -1.517617    0.572231
     17          6           0        1.783952   -2.134102    1.213347
     18          6           0        2.372386   -3.286603    0.695875
     19          6           0        1.846598   -3.834770   -0.468864
     20          6           0        0.761666   -3.265992   -1.125247
     21          6           0        0.192218   -2.105439   -0.599334
     22          9           0        2.401556   -4.956227   -0.972243
     23          1           0        1.675522    4.661177    1.192585
     24          1           0        0.410601    2.734465    2.144257
     25          1           0        1.746618    0.264473   -1.119060
     26          1           0        3.024831    2.194093   -2.041096
     27          1           0       -2.573101   -1.014001    2.143321
     28          1           0       -4.874499   -0.883362    1.192283
     29          1           0       -3.415997    1.524598   -2.038547
     30          1           0       -1.105484    1.383795   -1.117351
     31          1           0        2.175582   -1.709227    2.134366
     32          1           0        3.214553   -3.766757    1.183472
     33          1           0        0.377778   -3.729957   -2.028194
     34          1           0       -0.657131   -1.659415   -1.107520
 ---------------------------------------------------------------------

 SCF Done:  E(RB3LYP) =  -1333.99897646     a.u. after    1 cycles

 Excitation energies and oscillator strengths:

 Excited State   1:      Singlet-A      4.5724 eV  271.16 nm  f=0.1342  <S**2>=0.000
      81 -> 82         0.69333
 This state for optimization and/or second-order correction.
 Total Energy, E(TD-HF/TD-DFT) =  -1333.83094457
 Copying the excited state density for this state as the 1-particle RhoCI density.

 Excited State   2:      Singlet-A      4.5765 eV  270.92 nm  f=0.1354  <S**2>=0.000
      81 -> 83         0.69266

 Excited State   3:      Singlet-A      4.5868 eV  270.31 nm  f=0.0105  <S**2>=0.000
      81 -> 84         0.68795

 Excited State   4:      Singlet-A      4.9050 eV  252.77 nm  f=0.0018  <S**2>=0.000
      81 -> 85         0.67644

 Excited State   5:      Singlet-A      4.9071 eV  252.66 nm  f=0.0016  <S**2>=0.000
      81 -> 86         0.67596

 Excited State   6:      Singlet-A      5.2397 eV  236.62 nm  f=0.0075  <S**2>=0.000
      79 -> 82        -0.10608
      80 -> 83         0.10732
      81 -> 87         0.67228

 Excited State   7:      Singlet-A      5.4166 eV  228.90 nm  f=0.0001  <S**2>=0.000
      75 -> 84        -0.14128
      77 -> 82         0.18326
      78 -> 83        -0.15972
      79 -> 82         0.27745
      79 -> 83         0.29970
      79 -> 85         0.15438
      80 -> 82         0.30006
      80 -> 83        -0.27165
      80 -> 86        -0.13912

 Excited State   8:      Singlet-A      5.4448 eV  227.71 nm  f=0.0019  <S**2>=0.000
      76 -> 82         0.21180
      77 -> 82        -0.11130
      77 -> 83        -0.15044
      77 -> 87        -0.12199
      78 -> 82         0.15100
      78 -> 83        -0.12334
      79 -> 84        -0.31023
      79 -> 86        -0.15284
      80 -> 84         0.39193
      80 -> 85         0.15244
      81 -> 85         0.12464

 Excited State   9:      Singlet-A      5.4463 eV  227.65 nm  f=0.0021  <S**2>=0.000
      76 -> 83         0.20767
      77 -> 82        -0.13657
      77 -> 83         0.11414
      78 -> 82        -0.11789
      78 -> 83        -0.15906
      78 -> 87         0.12170
      79 -> 84         0.38615
      79 -> 85        -0.14428
      80 -> 84         0.31982
      80 -> 86        -0.16068
      81 -> 86         0.12558

 Excited State  10:      Singlet-A      5.6621 eV  218.97 nm  f=0.0036  <S**2>=0.000
      75 -> 84         0.16221
      76 -> 84        -0.10184
      77 -> 82        -0.24695
      78 -> 83         0.23145
      79 -> 83         0.20388
      79 -> 85        -0.21827
      79 -> 86         0.10684
      80 -> 82         0.36671
      80 -> 85         0.11037
      80 -> 86         0.23752

 The electronic state is 1-A.
 Alpha  occ. eigenvalues --  -77.09285 -24.70935 -24.70935 -24.70928 -10.27932
 Alpha  occ. eigenvalues --  -10.27931 -10.27923 -10.20803 -10.20802 -10.20798
 Alpha  occ. eigenvalues --  -10.20703 -10.20702 -10.20695 -10.20479 -10.20478
 Alpha  occ. eigenvalues --  -10.20476 -10.20319 -10.20319 -10.20312 -10.20310
 Alpha  occ. eigenvalues --  -10.20309 -10.20306  -6.55986  -4.72247  -4.72247
 Alpha  occ. eigenvalues --   -4.71743  -1.22114  -1.22113  -1.22106  -0.87207
 Alpha  occ. eigenvalues --   -0.86557  -0.86553  -0.77802  -0.76322  -0.76286
 Alpha  occ. eigenvalues --   -0.76284  -0.74869  -0.74865  -0.65458  -0.63139
 Alpha  occ. eigenvalues --   -0.62959  -0.62957  -0.60999  -0.60996  -0.57074
 Alpha  occ. eigenvalues --   -0.54666  -0.54663  -0.54254  -0.49447  -0.49443
 Alpha  occ. eigenvalues --   -0.49382  -0.48019  -0.48018  -0.46312  -0.46308
 Alpha  occ. eigenvalues --   -0.46295  -0.45865  -0.44922  -0.44920  -0.43857
 Alpha  occ. eigenvalues --   -0.43707  -0.43704  -0.42082  -0.40157  -0.40108
 Alpha  occ. eigenvalues --   -0.40107  -0.37163  -0.37157  -0.36438  -0.34998
 Alpha  occ. eigenvalues --   -0.34996  -0.34951  -0.33924  -0.33921  -0.27230
 Alpha  occ. eigenvalues --   -0.26848  -0.26602  -0.26595  -0.25429  -0.25418
 Alpha  occ. eigenvalues --   -0.21919
 Alpha virt. eigenvalues --   -0.02516  -0.02506  -0.02413  -0.01176  -0.01168
 Alpha virt. eigenvalues --   -0.00310   0.05874   0.05896   0.08467   0.10088
 Alpha virt. eigenvalues --    0.10090   0.12846   0.13529   0.13531   0.14052

 Mulliken charges:
               1
     1  C   -0.199940
     2  C   -0.154914
     3  C   -0.104176
     4  C   -0.187361
     5  C   -0.178427
     6  C    0.356386
     7  F   -0.298429
     8  P    0.435615
     9  C   -0.125291
    10  C   -0.181203
    11  C   -0.183120
    12  C    0.346685
    13  C   -0.188893
    14  C   -0.166240
    15  F   -0.301551
    16  C   -0.079619
    17  C   -0.162083
    18  C   -0.182931
    19  C    0.390919
    20  C   -0.185219
    21  C   -0.150823
    22  F   -0.281874
    23  H    0.141198
    24  H    0.139385
    25  H    0.132758
    26  H    0.143577
    27  H    0.127957
    28  H    0.138567
    29  H    0.142310
    30  H    0.150442
    31  H    0.158260
    32  H    0.161861
    33  H    0.165223
    34  H    0.180951
 Sum of Mulliken charges =  -0.00000

 Dipole moment (field-independent basis, Debye):
    X=              1.7176    Y=             -2.9614    Z=              1.4590  Tot=              3.7214
 Quadrupole moment (field-independent basis, Debye-Ang):
   XX=           -144.2258   YY=           -134.8110   ZZ=           -121.8247
   XY=             -4.6522   XZ=              0.4426   YZ=              0.8443

 Summary of Natural Population Analysis:

                                       Natural Population
                Natural  -----------------------------------------------
    Atom  No    Charge         Core      Valence    Rydberg      Total
 -----------------------------------------------------------------------
      C    1   -0.33160      1.99899     4.31634    0.01627     6.33160
      C    2   -0.18560      1.99902     4.17122    0.01535     6.18560
      C    3   -0.44519      1.99887     4.42187    0.02444     6.44519
      C    4   -0.27315      1.99900     4.25550    0.01865     6.27315
      C    5   -0.28467      1.99899     4.27089    0.01479     6.28467
      C    6    0.40002      1.99844     3.57377    0.02777     5.59998
      F    7   -0.33373      1.99994     7.32828    0.00551     9.33373
      P    8    1.21012      9.99756     3.74079    0.05152    13.78988
      C    9   -0.48209      1.99888     4.45660    0.02661     6.48209
      C   10   -0.23202      1.99903     4.21650    0.01649     6.23202
      C   11   -0.29902      1.99900     4.28490    0.01512     6.29902
      C   12    0.38215      1.99844     3.59144    0.02797     5.61785
      C   13   -0.30324      1.99899     4.28899    0.01526     6.30324
      C   14   -0.22452      1.99900     4.20826    0.01726     6.22452
      F   15   -0.33667      1.99994     7.33121    0.00551     9.33667
      C   16   -0.39004      1.99891     4.36580    0.02533     6.39004
      C   17   -0.19532      1.99903     4.18097    0.01532     6.19532
      C   18   -0.30090      1.99899     4.28702    0.01489     6.30090
      C   19    0.45489      1.99844     3.51958    0.02709     5.54511
      C   20   -0.29893      1.99898     4.28518    0.01477     6.29893
      C   21   -0.19285      1.99901     4.17780    0.01604     6.19285
      F   22   -0.31920      1.99994     7.31366    0.00560     9.31920
      H   23    0.24931      0.00000     0.74952    0.00117     0.75069
      H   24    0.23837      0.00000     0.76050    0.00113     0.76163
      H   25    0.23786      0.00000     0.76080    0.00133     0.76214
      H   26    0.24995      0.00000     0.74884    0.00121     0.75005
      H   27    0.23130      0.00000     0.76781    0.00089     0.76870
      H   28    0.24715      0.00000     0.75162    0.00124     0.75285
      H   29    0.24973      0.00000     0.74907    0.00120     0.75027
      H   30    0.24689      0.00000     0.75141    0.00170     0.75311
      H   31    0.24759      0.00000     0.75123    0.00119     0.75241
      H   32    0.25845      0.00000     0.74037    0.00118     0.74155
      H   33    0.26054      0.00000     0.73828    0.00117     0.73946
      H   34    0.26439      0.00000     0.73441    0.00120     0.73561
 =======================================================================
   * Total *    0.00000     51.97740   109.59044    0.43216   162.00000

 Normal termination of Gaussian 16 at Sun Aug 23 16:17:44 2020.
