 Gaussian 16, Revision A.03,

 ---------------------------------
 # opt=CalcAll B3LYP/6-31G* scf=qc
 ---------------------------------

 -------------------
 Title Card Required
 -------------------
 Symbolic Z-matrix:
 Charge =  0 Multiplicity = 1

 SCF Done:  E(RB3LYP) =  -2415.07012777     a.u. after    8 cycles
 SCF Done:  E(RB3LYP) =  -2415.08232364     a.u. after   17 cycles
 SCF Done:  E(RB3LYP) =  -2415.08501991     a.u. after   17 cycles
 SCF Done:  E(RB3LYP) =  -2415.08564586     a.u. after   15 cycles
 SCF Done:  E(RB3LYP) =  -2415.08565658     a.u. after   13 cycles
 SCF Done:  E(RB3LYP) =  -2415.08601455     a.u. after   11 cycles
 SCF Done:  E(RB3LYP) =  -2415.08609968     a.u. after   11 cycles
 SCF Done:  E(RB3LYP) =  -2415.08621883     a.u. after   13 cycles
 SCF Done:  E(RB3LYP) =  -2415.08622776     a.u. after    5 cycles
 SCF Done:  E(RB3LYP) =  -2415.08623824     a.u. after    9 cycles
 SCF Done:  E(RB3LYP) =  -2415.08624671     a.u. after    4 cycles
 SCF Done:  E(RB3LYP) =  -2415.08623911     a.u. after    4 cycles
 SCF Done:  E(RB3LYP) =  -2415.08624721     a.u. after    3 cycles
 SCF Done:  E(RB3LYP) =  -2415.08624444     a.u. after    3 cycles
 SCF Done:  E(RB3LYP) =  -2415.08624507     a.u. after    3 cycles
 SCF Done:  E(RB3LYP) =  -2415.08624805     a.u. after    4 cycles
 SCF Done:  E(RB3LYP) =  -2415.08624901     a.u. after    2 cycles
 SCF Done:  E(RB3LYP) =  -2415.08624935     a.u. after    2 cycles
 Optimization completed.
    -- Stationary point found.
 Normal termination of Gaussian 16 at Sun Aug 23 07:35:05 2020.

 ----------------------------------------------------------------------
 # freq B3LYP/6-31G* scf=qc volume NMR pop=NPA density=current Geom=All
 Check Guess=Read
 ----------------------------------------------------------------------

 Structure from the checkpoint file:  "phosphine_11_conf262.chk"
 -------------------
 Title Card Required
 -------------------
 Charge =  0 Multiplicity = 1

 SCF Done:  E(RB3LYP) =  -2415.08624935     a.u. after    1 cycles

      1  C    Isotropic =    67.5474   Anisotropy =   140.5634

      2  C    Isotropic =    60.2030   Anisotropy =   160.2778

      3  C    Isotropic =    58.7732   Anisotropy =   177.4365

      4  C    Isotropic =    61.8713   Anisotropy =   168.6553

      5  C    Isotropic =    67.5370   Anisotropy =   140.1250

      6  C    Isotropic =    51.5919   Anisotropy =   109.1462

      7  Cl   Isotropic =   720.9254   Anisotropy =   452.9205

      8  P    Isotropic =   364.8672   Anisotropy =    37.9708

      9  C    Isotropic =    58.7386   Anisotropy =   177.4336

     10  C    Isotropic =    60.2509   Anisotropy =   160.3232

     11  C    Isotropic =    67.5512   Anisotropy =   140.5685

     12  C    Isotropic =    51.6058   Anisotropy =   109.1206

     13  C    Isotropic =    67.5375   Anisotropy =   140.1172

     14  C    Isotropic =    61.9228   Anisotropy =   168.5963

     15  Cl   Isotropic =   720.9313   Anisotropy =   453.0447

     16  C    Isotropic =    58.7281   Anisotropy =   177.4357

     17  C    Isotropic =    60.2204   Anisotropy =   160.2720

     18  C    Isotropic =    67.5482   Anisotropy =   140.5918

     19  C    Isotropic =    51.5939   Anisotropy =   109.1560

     20  C    Isotropic =    67.5386   Anisotropy =   140.1043

     21  C    Isotropic =    61.8855   Anisotropy =   168.5951

     22  Cl   Isotropic =   720.9428   Anisotropy =   452.9532

     23  H    Isotropic =    25.0929   Anisotropy =     6.6299

     24  H    Isotropic =    24.7758   Anisotropy =     8.9642

     25  H    Isotropic =    25.5770   Anisotropy =    12.1113

     26  H    Isotropic =    25.2069   Anisotropy =     8.1420

     27  H    Isotropic =    24.7794   Anisotropy =     8.9768

     28  H    Isotropic =    25.0941   Anisotropy =     6.6321

     29  H    Isotropic =    25.2086   Anisotropy =     8.1453

     30  H    Isotropic =    25.5849   Anisotropy =    12.1278

     31  H    Isotropic =    24.7780   Anisotropy =     8.9674

     32  H    Isotropic =    25.0910   Anisotropy =     6.6366

     33  H    Isotropic =    25.2097   Anisotropy =     8.1391

     34  H    Isotropic =    25.5824   Anisotropy =    12.1087

  Exact polarizability: 280.647   0.088 280.536   0.045  -0.077 185.131
 Approx polarizability: 393.509   0.206 393.312   0.103  -0.178 343.195

                      1                      2                      3
                      A                      A                      A
 Frequencies --     23.3834                23.4381                29.8570
 Red. masses --      5.1391                 5.1263                 7.7702
 Frc consts  --      0.0017                 0.0017                 0.0041
 IR Inten    --      0.2592                 0.2463                 0.2051

                      4                      5                      6
                      A                      A                      A
 Frequencies --     30.1494                38.4281                40.5187
 Red. masses --      7.4456                 7.8076                 4.6667
 Frc consts  --      0.0040                 0.0068                 0.0045
 IR Inten    --      0.2176                 0.1902                 0.0378

                      7                      8                      9
                      A                      A                      A
 Frequencies --    109.3606               117.6419               117.7432
 Red. masses --      8.8648                 8.8313                 8.8343
 Frc consts  --      0.0625                 0.0720                 0.0722
 IR Inten    --      0.0247                 0.3522                 0.3486

                     10                     11                     12
                      A                      A                      A
 Frequencies --    181.0566               187.2326               187.7168
 Red. masses --     10.0362                 8.7797                 8.7990
 Frc consts  --      0.1938                 0.1813                 0.1827
 IR Inten    --      0.3330                 0.5733                 0.5686

                     13                     14                     15
                      A                      A                      A
 Frequencies --    264.0836               293.7158               293.8064
 Red. masses --      8.9798                 8.4084                 8.4184
 Frc consts  --      0.3690                 0.4274                 0.4282
 IR Inten    --      0.2158                 0.9115                 0.9065

                     16                     17                     18
                      A                      A                      A
 Frequencies --    310.9014               328.7691               328.8202
 Red. masses --      6.0404                 5.9751                 5.9835
 Frc consts  --      0.3440                 0.3805                 0.3812
 IR Inten    --      0.0033                 1.8681                 1.8818

                     19                     20                     21
                      A                      A                      A
 Frequencies --    383.9968               384.1917               414.8044
 Red. masses --      8.0420                 8.0211                 3.0453
 Frc consts  --      0.6987                 0.6976                 0.3087
 IR Inten    --     20.9918                21.0109                 0.0507

                     22                     23                     24
                      A                      A                      A
 Frequencies --    414.8397               416.8183               426.8730
 Red. masses --      3.0469                 3.2125                 6.6072
 Frc consts  --      0.3089                 0.3288                 0.7094
 IR Inten    --      0.0506                 0.1635                 2.9400

                     25                     26                     27
                      A                      A                      A
 Frequencies --    499.5508               509.4898               509.5546
 Red. masses --      5.5279                 3.6499                 3.6495
 Frc consts  --      0.8128                 0.5582                 0.5583
 IR Inten    --      6.8150                19.7762                19.9272

                     28                     29                     30
                      A                      A                      A
 Frequencies --    531.6726               548.8477               548.9596
 Red. masses --      4.5675                 7.4280                 7.4273
 Frc consts  --      0.7607                 1.3183                 1.3187
 IR Inten    --      9.8769                 5.4668                 5.4647

                     31                     32                     33
                      A                      A                      A
 Frequencies --    644.3728               644.3798               645.3254
 Red. masses --      7.1599                 7.1601                 7.1686
 Frc consts  --      1.7516                 1.7517                 1.7589
 IR Inten    --      0.0372                 0.0369                 0.0957

                     34                     35                     36
                      A                      A                      A
 Frequencies --    718.3268               718.3496               718.7688
 Red. masses --      4.5916                 4.5938                 4.6086
 Frc consts  --      1.3959                 1.3967                 1.4028
 IR Inten    --      1.6901                 1.6741                 0.2933

                     37                     38                     39
                      A                      A                      A
 Frequencies --    746.0873               751.6284               751.7179
 Red. masses --      7.2604                 7.2740                 7.2731
 Frc consts  --      2.3812                 2.4212                 2.4215
 IR Inten    --     14.6381                54.3107                54.4521

                     40                     41                     42
                      A                      A                      A
 Frequencies --    833.7622               834.2328               834.3397
 Red. masses --      1.4165                 1.4316                 1.4315
 Frc consts  --      0.5801                 0.5870                 0.5871
 IR Inten    --     23.3334                32.9205                32.8271

                     43                     44                     45
                      A                      A                      A
 Frequencies --    845.9632               846.0416               849.0452
 Red. masses --      1.2466                 1.2465                 1.2500
 Frc consts  --      0.5256                 0.5257                 0.5309
 IR Inten    --      0.6455                 0.6285                 0.3017

                     46                     47                     48
                      A                      A                      A
 Frequencies --    969.6561               969.7416               970.0810
 Red. masses --      1.2764                 1.2765                 1.2875
 Frc consts  --      0.7071                 0.7073                 0.7139
 IR Inten    --      0.1471                 0.1436                 0.2143

                     49                     50                     51
                      A                      A                      A
 Frequencies --    973.4962               973.5777               976.7769
 Red. masses --      1.3447                 1.3446                 1.3218
 Frc consts  --      0.7508                 0.7509                 0.7431
 IR Inten    --      0.0120                 0.0102                 0.4152

                     52                     53                     54
                      A                      A                      A
 Frequencies --   1027.9733              1028.0057              1029.6337
 Red. masses --      4.7544                 4.7677                 4.7005
 Frc consts  --      2.9601                 2.9686                 2.9360
 IR Inten    --     62.6998                62.7491                 5.1206

                     55                     56                     57
                      A                      A                      A
 Frequencies --   1097.7303              1097.7862              1101.4744
 Red. masses --      7.8957                 7.9234                 8.0784
 Frc consts  --      5.6057                 5.6260                 5.7747
 IR Inten    --     80.9084                81.3639                13.6674

                     58                     59                     60
                      A                      A                      A
 Frequencies --   1118.1910              1118.3952              1121.1297
 Red. masses --      2.1238                 2.1208                 2.1011
 Frc consts  --      1.5646                 1.5629                 1.5560
 IR Inten    --     33.1714                32.7383                 6.5044

                     61                     62                     63
                      A                      A                      A
 Frequencies --   1139.3001              1139.4835              1139.5967
 Red. masses --      1.4012                 1.4017                 1.4026
 Frc consts  --      1.0716                 1.0723                 1.0732
 IR Inten    --      0.7110                 1.7112                 1.7379

                     64                     65                     66
                      A                      A                      A
 Frequencies --   1219.0328              1219.5197              1220.8256
 Red. masses --      1.1567                 1.1574                 1.1519
 Frc consts  --      1.0128                 1.0142                 1.0115
 IR Inten    --      4.7599                 4.7646                 0.9995

                     67                     68                     69
                      A                      A                      A
 Frequencies --   1318.3385              1322.2568              1322.3979
 Red. masses --      6.8920                 7.5263                 7.8008
 Frc consts  --      7.0574                 7.7529                 8.0373
 IR Inten    --      1.3235                 2.6535                 2.6676

                     70                     71                     72
                      A                      A                      A
 Frequencies --   1337.1772              1337.5567              1337.8413
 Red. masses --      1.3425                 1.3375                 1.3376
 Frc consts  --      1.4143                 1.4098                 1.4106
 IR Inten    --      0.5468                 0.7329                 1.0148

                     73                     74                     75
                      A                      A                      A
 Frequencies --   1429.5473              1429.9627              1430.1547
 Red. masses --      2.6369                 2.6431                 2.6391
 Frc consts  --      3.1750                 3.1842                 3.1804
 IR Inten    --     19.0914                 6.5762                 6.2720

                     76                     77                     78
                      A                      A                      A
 Frequencies --   1527.0904              1527.1612              1527.2747
 Red. masses --      2.0822                 2.0896                 2.0766
 Frc consts  --      2.8610                 2.8713                 2.8539
 IR Inten    --     52.8729                28.5647                60.5793

                     79                     80                     81
                      A                      A                      A
 Frequencies --   1611.0473              1611.2964              1611.3097
 Red. masses --      6.6445                 6.6649                 6.6605
 Frc consts  --     10.1608                10.1952                10.1887
 IR Inten    --      3.8681                 3.7845                 3.8461

                     82                     83                     84
                      A                      A                      A
 Frequencies --   1633.4288              1633.4812              1634.5042
 Red. masses --      5.4305                 5.4242                 5.4924
 Frc consts  --      8.5367                 8.5273                 8.6453
 IR Inten    --     29.8330                29.6119                13.1241

                     85                     86                     87
                      A                      A                      A
 Frequencies --   3188.0603              3188.0930              3188.2046
 Red. masses --      1.0893                 1.0892                 1.0892
 Frc consts  --      6.5229                 6.5224                 6.5230
 IR Inten    --      7.3232                 2.0083                 3.3611

                     88                     89                     90
                      A                      A                      A
 Frequencies --   3205.6766              3205.9414              3206.5089
 Red. masses --      1.0879                 1.0878                 1.0879
 Frc consts  --      6.5866                 6.5874                 6.5900
 IR Inten    --      0.8510                 0.8640                 0.6549

                     91                     92                     93
                      A                      A                      A
 Frequencies --   3222.6294              3222.6570              3222.7877
 Red. masses --      1.0937                 1.0937                 1.0937
 Frc consts  --      6.6924                 6.6925                 6.6926
 IR Inten    --      2.2990                 2.6627                 9.6833

                     94                     95                     96
                      A                      A                      A
 Frequencies --   3223.6760              3223.7075              3223.9516
 Red. masses --      1.0939                 1.0939                 1.0941
 Frc consts  --      6.6979                 6.6981                 6.7004
 IR Inten    --      5.6678                 5.6060                 0.0711

 - Thermochemistry -
 -------------------
 Temperature   298.150 Kelvin.  Pressure   1.00000 Atm.
 Atom     1 has atomic number  6 and mass  12.00000

 Molecular mass:   363.97422 amu.
 Principal axes and moments of inertia in atomic units:
                           1         2         3
     Eigenvalues --  ******************************
           X            0.99929   0.03765   0.00001
           Y           -0.03765   0.99929  -0.00002
           Z           -0.00001   0.00002   1.00000
 This molecule is an asymmetric top.
 Rotational symmetry number  1.
 Warning -- assumption of classical behavior for rotation
           may cause significant error
 Rotational temperatures (Kelvin)      0.00723     0.00723     0.00405
 Rotational constants (GHZ):           0.15065     0.15059     0.08440
 Zero-point vibrational energy     643792.4 (Joules/Mol)
                                  153.87009 (Kcal/Mol)
 Warning -- explicit consideration of  30 degrees of freedom as
           vibrations may cause significant error
 Vibrational temperatures:     33.64    33.72    42.96    43.38    55.29
          (Kelvin)             58.30   157.35   169.26   169.41   260.50
                              269.39   270.08   379.96   422.59   422.72
                              447.32   473.03   473.10   552.49   552.77
                              596.81   596.86   599.71   614.17   718.74
                              733.04   733.14   764.96   789.67   789.83
                              927.11   927.12   928.48  1033.51  1033.54
                             1034.15  1073.45  1081.43  1081.55  1199.60
                             1200.27  1200.43  1217.15  1217.27  1221.59
                             1395.12  1395.24  1395.73  1400.64  1400.76
                             1405.36  1479.02  1479.07  1481.41  1579.39
                             1579.47  1584.78  1608.83  1609.12  1613.06
                             1639.20  1639.46  1639.63  1753.92  1754.62
                             1756.50  1896.80  1902.43  1902.64  1923.90
                             1924.45  1924.86  2056.80  2057.40  2057.67
                             2197.14  2197.24  2197.41  2317.94  2318.30
                             2318.32  2350.14  2350.22  2351.69  4586.91
                             4586.95  4587.12  4612.25  4612.63  4613.45
                             4636.64  4636.68  4636.87  4638.15  4638.20
                             4638.55

 Zero-point correction=                           0.245208 (Hartree/Particle)
 Thermal correction to Energy=                    0.264850
 Thermal correction to Enthalpy=                  0.265794
 Thermal correction to Gibbs Free Energy=         0.192409
 Sum of electronic and zero-point Energies=          -2414.841042
 Sum of electronic and thermal Energies=             -2414.821400
 Sum of electronic and thermal Enthalpies=           -2414.820456
 Sum of electronic and thermal Free Energies=        -2414.893840

                     E (Thermal)             CV                S
                      KCal/Mol        Cal/Mol-Kelvin    Cal/Mol-Kelvin
 Total                  166.196             74.118            154.451
 Electronic               0.000              0.000              0.000
 Translational            0.889              2.981             43.569
 Rotational               0.889              2.981             36.372
 Vibrational            164.418             68.156             74.510
 Vibration     1          0.593              1.985              6.324
 Vibration     2          0.593              1.985              6.319
 Vibration     3          0.594              1.984              5.839
 Vibration     4          0.594              1.984              5.820
 Vibration     5          0.594              1.982              5.339
 Vibration     6          0.594              1.981              5.234
 Vibration     7          0.606              1.942              3.280
 Vibration     8          0.608              1.935              3.139
 Vibration     9          0.608              1.935              3.137
 Vibration    10          0.630              1.865              2.317
 Vibration    11          0.632              1.857              2.255
 Vibration    12          0.632              1.857              2.250
 Vibration    13          0.671              1.739              1.635
 Vibration    14          0.689              1.685              1.452
 Vibration    15          0.689              1.685              1.452
 Vibration    16          0.700              1.653              1.358
 Vibration    17          0.712              1.618              1.266
 Vibration    18          0.712              1.618              1.266
 Vibration    19          0.753              1.504              1.023
 Vibration    20          0.753              1.504              1.023
 Vibration    21          0.778              1.438              0.910
 Vibration    22          0.778              1.438              0.910
 Vibration    23          0.780              1.434              0.903
 Vibration    24          0.789              1.412              0.869
 Vibration    25          0.855              1.251              0.659
 Vibration    26          0.865              1.229              0.635
 Vibration    27          0.865              1.229              0.635
 Vibration    28          0.887              1.180              0.583
 Vibration    29          0.904              1.142              0.547
 Vibration    30          0.904              1.142              0.546

                           ! Non-Optimized Parameters !
 Normal termination of Gaussian 16 at Sun Aug 23 07:46:54 2020.
 Gaussian 16:  ES64L-G16RevA.03 25-Dec-2016

 ----------------------------------------------------------------------
 # TD(NStates=10, Root=1) B3LYP/6-31G* scf=qc volume pop=NPA density=cu
 rrent Geom=AllCheck Guess=Read
 ----------------------------------------------------------------------

 Structure from the checkpoint file:  "phosphine_11_conf263.chk"
 -------------------
 Title Card Required
 -------------------
 Charge =  0 Multiplicity = 1

                         Standard orientation:
 ---------------------------------------------------------------------
 Center     Atomic      Atomic             Coordinates (Angstroms)
 Number     Number       Type             X           Y           Z
 ---------------------------------------------------------------------
      1          6           0        3.616565    1.826838    0.854371
      2          6           0        2.385441    1.430901    1.373921
      3          6           0        1.608734    0.445011    0.742647
      4          6           0        2.113661   -0.154717   -0.420731
      5          6           0        3.350003    0.221888   -0.947468
      6          6           0        4.089325    1.214213   -0.305942
      7         17           0        5.646426    1.694714   -0.964136
      8         15           0        0.000190    0.000278    1.547673
      9          6           0       -1.189532    1.170700    0.742673
     10          6           0       -2.434298    1.344886    1.370424
     11          6           0       -3.393167    2.212654    0.850981
     12          6           0       -3.096860    2.933681   -0.305529
     13          6           0       -1.865275    2.795214   -0.943334
     14          6           0       -0.920501    1.913105   -0.416845
     15         17           0       -4.292137    4.041444   -0.963499
     16          6           0       -0.418862   -1.615157    0.742649
     17          6           0        0.048215   -2.780635    1.372944
     18          6           0       -0.224215   -4.044802    0.853328
     19          6           0       -0.992554   -4.148081   -0.306041
     20          6           0       -1.483937   -3.011792   -0.946530
     21          6           0       -1.192151   -1.752739   -0.419747
     22         17           0       -1.354669   -5.736866   -0.964324
     23          1           0        4.207770    2.591571    1.346908
     24          1           0        2.026953    1.895264    2.289453
     25          1           0        1.543210   -0.928850   -0.924687
     26          1           0        3.735203   -0.248381   -1.846236
     27          1           0       -2.658993    0.798161    2.283092
     28          1           0       -4.353054    2.337929    1.340730
     29          1           0       -1.648955    3.367996   -1.839126
     30          1           0        0.037110    1.810653   -0.917996
     31          1           0        0.630678   -2.702254    2.287790
     32          1           0        0.143723   -4.939066    1.345106
     33          1           0       -2.084890   -3.110382   -1.844557
     34          1           0       -1.578701   -0.871774   -0.922896
 ---------------------------------------------------------------------

 SCF Done:  E(RB3LYP) =  -2415.08624935     a.u. after    1 cycles

 Excitation energies and oscillator strengths:

 Excited State   1:      Singlet-A      4.4050 eV  281.46 nm  f=0.1828  <S**2>=0.000
      93 -> 94         0.69580
 This state for optimization and/or second-order correction.
 Total Energy, E(TD-HF/TD-DFT) =  -2414.92436946
 Copying the excited state density for this state as the 1-particle RhoCI density.

 Excited State   2:      Singlet-A      4.4073 eV  281.32 nm  f=0.1842  <S**2>=0.000
      93 -> 95         0.69577

 Excited State   3:      Singlet-A      4.6116 eV  268.85 nm  f=0.0036  <S**2>=0.000
      89 -> 94         0.10965
      90 -> 95         0.11013
      93 -> 96         0.67973

 Excited State   4:      Singlet-A      4.9171 eV  252.15 nm  f=0.0001  <S**2>=0.000
      88 -> 94        -0.11573
      89 -> 95        -0.10423
      89 -> 97        -0.10029
      90 -> 94        -0.10409
      93 -> 98         0.64530

 Excited State   5:      Singlet-A      4.9182 eV  252.09 nm  f=0.0001  <S**2>=0.000
      88 -> 95         0.11557
      89 -> 94         0.10441
      90 -> 95        -0.10481
      90 -> 97         0.10114
      93 -> 99         0.64483

 Excited State   6:      Singlet-A      5.0220 eV  246.88 nm  f=0.0090  <S**2>=0.000
      91 -> 94        -0.11683
      92 -> 95        -0.11730
      93 -> 97         0.66874

 Excited State   7:      Singlet-A      5.2597 eV  235.73 nm  f=0.0017  <S**2>=0.000
      89 -> 94         0.13282
      90 -> 95         0.12959
      91 -> 94         0.24205
      91 -> 95        -0.37050
      91 -> 98        -0.12692
      92 -> 94         0.37557
      92 -> 95         0.24111
      92 -> 99         0.12458
      93 -> 96        -0.10387

 Excited State   8:      Singlet-A      5.3611 eV  231.27 nm  f=0.0050  <S**2>=0.000
      88 -> 94         0.19170
      89 -> 94        -0.14252
      89 -> 95         0.13018
      89 -> 97         0.11197
      90 -> 94         0.13091
      90 -> 95         0.14160
      91 -> 95         0.14275
      91 -> 96         0.38455
      91 -> 99         0.15005
      92 -> 94         0.14715
      92 -> 96        -0.21798
      92 -> 98        -0.15263
      93 -> 98         0.22680

 Excited State   9:      Singlet-A      5.3621 eV  231.23 nm  f=0.0048  <S**2>=0.000
      88 -> 95         0.18961
      89 -> 94         0.13062
      89 -> 95         0.14184
      90 -> 94         0.14164
      90 -> 95        -0.13017
      90 -> 97         0.11200
      91 -> 94         0.14248
      91 -> 96         0.21624
      91 -> 98        -0.15063
      92 -> 95        -0.14528
      92 -> 96         0.38729
      92 -> 99        -0.15058
      93 -> 99        -0.22783

 Excited State  10:      Singlet-A      5.4211 eV  228.71 nm  f=0.1610  <S**2>=0.000
      91 -> 94         0.46315
      92 -> 95        -0.46242
      92 -> 96        -0.13519

 The electronic state is 1-A.
 Alpha  occ. eigenvalues -- -101.55494-101.55492-101.55490 -77.10094 -10.26331
 Alpha  occ. eigenvalues --  -10.26328 -10.26325 -10.21419 -10.21417 -10.21417
 Alpha  occ. eigenvalues --  -10.21368 -10.21367 -10.21365 -10.21347 -10.21346
 Alpha  occ. eigenvalues --  -10.21343 -10.21314 -10.21312 -10.21311 -10.21249
 Alpha  occ. eigenvalues --  -10.21248 -10.21245  -9.47126  -9.47124  -9.47122
 Alpha  occ. eigenvalues --   -7.23521  -7.23519  -7.23517  -7.22556  -7.22554
 Alpha  occ. eigenvalues --   -7.22552  -7.22519  -7.22517  -7.22515  -6.56809
 Alpha  occ. eigenvalues --   -4.73070  -4.73069  -4.72565  -0.89964  -0.89792
 Alpha  occ. eigenvalues --   -0.89789  -0.85154  -0.84238  -0.84235  -0.76898
 Alpha  occ. eigenvalues --   -0.76780  -0.76779  -0.76742  -0.73907  -0.73905
 Alpha  occ. eigenvalues --   -0.65058  -0.63150  -0.62987  -0.62986  -0.60497
 Alpha  occ. eigenvalues --   -0.60496  -0.57615  -0.52432  -0.52430  -0.49746
 Alpha  occ. eigenvalues --   -0.48088  -0.47999  -0.47998  -0.47167  -0.47167
 Alpha  occ. eigenvalues --   -0.46321  -0.44340  -0.44246  -0.44245  -0.42726
 Alpha  occ. eigenvalues --   -0.42723  -0.40320  -0.40239  -0.40236  -0.39581
 Alpha  occ. eigenvalues --   -0.37219  -0.37218  -0.37129  -0.35190  -0.35186
 Alpha  occ. eigenvalues --   -0.34135  -0.33462  -0.33458  -0.31868  -0.31863
 Alpha  occ. eigenvalues --   -0.31861  -0.27684  -0.27414  -0.27144  -0.27140
 Alpha  occ. eigenvalues --   -0.25831  -0.25826  -0.22677
 Alpha virt. eigenvalues --   -0.03959  -0.03953  -0.03033  -0.01964  -0.01788
 Alpha virt. eigenvalues --   -0.01783   0.02242   0.02244   0.02402   0.05587
 Alpha virt. eigenvalues --    0.05597   0.10344   0.12155   0.12344   0.12346

 Mulliken charges:
               1
     1  C   -0.121145
     2  C   -0.173611
     3  C   -0.131805
     4  C   -0.169499
     5  C   -0.120626
     6  C   -0.101532
     7  Cl  -0.045182
     8  P    0.446473
     9  C   -0.086209
    10  C   -0.161499
    11  C   -0.114097
    12  C   -0.066098
    13  C   -0.118735
    14  C   -0.147308
    15  Cl   0.012599
    16  C   -0.097748
    17  C   -0.154084
    18  C   -0.124418
    19  C   -0.083336
    20  C   -0.112958
    21  C   -0.167391
    22  Cl  -0.016665
    23  H    0.143400
    24  H    0.126636
    25  H    0.141430
    26  H    0.147127
    27  H    0.158184
    28  H    0.168520
    29  H    0.172864
    30  H    0.185966
    31  H    0.147974
    32  H    0.157226
    33  H    0.159063
    34  H    0.146483
 Sum of Mulliken charges =  -0.00000

 Dipole moment (field-independent basis, Debye):
    X=             -4.0793    Y=              1.0330    Z=              1.9739  Tot=              4.6480
 Quadrupole moment (field-independent basis, Debye-Ang):
   XX=           -171.5957   YY=           -163.5055   ZZ=           -145.0428
   XY=             -8.0134   XZ=              0.5513   YZ=             -0.8938

 Summary of Natural Population Analysis:

                                       Natural Population
                Natural  -----------------------------------------------
    Atom  No    Charge         Core      Valence    Rydberg      Total
 -----------------------------------------------------------------------
      C    1   -0.25594      1.99894     4.24074    0.01626     6.25594
      C    2   -0.22515      1.99901     4.20994    0.01620     6.22515
      C    3   -0.48576      1.99887     4.46109    0.02580     6.48576
      C    4   -0.23965      1.99899     4.22307    0.01759     6.23965
      C    5   -0.24805      1.99893     4.23309    0.01602     6.24805
      C    6   -0.09316      1.99854     4.07240    0.02222     6.09316
     Cl    7   -0.01756      9.99967     6.99737    0.02051    17.01756
      P    8    1.21201      9.99758     3.74057    0.04984    13.78799
      C    9   -0.38867      1.99891     4.36436    0.02540     6.38867
      C   10   -0.19977      1.99902     4.18544    0.01531     6.19977
      C   11   -0.24269      1.99893     4.22850    0.01526     6.24269
      C   12   -0.02041      1.99855     3.99957    0.02229     6.02041
      C   13   -0.24462      1.99892     4.23026    0.01544     6.24462
      C   14   -0.19126      1.99900     4.17624    0.01602     6.19126
     Cl   15    0.02587      9.99967     6.95509    0.01938    16.97413
      C   16   -0.42059      1.99888     4.39770    0.02401     6.42059
      C   17   -0.19166      1.99901     4.17723    0.01541     6.19166
      C   18   -0.26174      1.99893     4.24644    0.01636     6.26174
      C   19   -0.05608      1.99855     4.03531    0.02223     6.05608
      C   20   -0.23440      1.99893     4.22016    0.01531     6.23440
      C   21   -0.23821      1.99899     4.22210    0.01711     6.23821
     Cl   22    0.00360      9.99967     6.97677    0.01996    16.99640
      H   23    0.24861      0.00000     0.75032    0.00107     0.75139
      H   24    0.23145      0.00000     0.76764    0.00090     0.76855
      H   25    0.24246      0.00000     0.75603    0.00151     0.75754
      H   26    0.25099      0.00000     0.74797    0.00105     0.74901
      H   27    0.24798      0.00000     0.75089    0.00113     0.75202
      H   28    0.26023      0.00000     0.73869    0.00107     0.73977
      H   29    0.26303      0.00000     0.73592    0.00105     0.73697
      H   30    0.26759      0.00000     0.73118    0.00123     0.73241
      H   31    0.24380      0.00000     0.75504    0.00116     0.75620
      H   32    0.25566      0.00000     0.74331    0.00103     0.74434
      H   33    0.25634      0.00000     0.74260    0.00106     0.74366
      H   34    0.24574      0.00000     0.75297    0.00130     0.75426
 =======================================================================
   * Total *    0.00000     75.97648   109.56603    0.45749   186.00000

 Normal termination of Gaussian 16 at Sun Aug 23 08:00:20 2020.
