 Gaussian 16, Revision A.03,

 ---------------------------------
 # opt=CalcAll B3LYP/6-31G* scf=qc
 ---------------------------------

 -------------------
 Title Card Required
 -------------------
 Symbolic Z-matrix:
 Charge =  0 Multiplicity = 1

 SCF Done:  E(RB3LYP) =  -1029.60640434     a.u. after    9 cycles
 SCF Done:  E(RB3LYP) =  -1029.62119105     a.u. after   17 cycles
 SCF Done:  E(RB3LYP) =  -1029.62519196     a.u. after   17 cycles
 SCF Done:  E(RB3LYP) =  -1029.62575329     a.u. after   15 cycles
 SCF Done:  E(RB3LYP) =  -1029.62579601     a.u. after   13 cycles
 SCF Done:  E(RB3LYP) =  -1029.62579910     a.u. after    4 cycles
 SCF Done:  E(RB3LYP) =  -1029.62579912     a.u. after    2 cycles
 Optimization completed.
    -- Stationary point found.
 Normal termination of Gaussian 16 at Sun Aug 23 14:01:22 2020.

 ----------------------------------------------------------------------
 # freq B3LYP/6-31G* scf=qc volume NMR pop=NPA density=current Geom=All
 Check Guess=Read
 ----------------------------------------------------------------------

 Structure from the checkpoint file:  "phosphine_9_conf232.chk"
 -------------------
 Title Card Required
 -------------------
 Charge =  0 Multiplicity = 1

 SCF Done:  E(RB3LYP) =  -1029.62579912     a.u. after    1 cycles

      1  C    Isotropic =    84.8785   Anisotropy =   120.5856

      2  C    Isotropic =    76.1417   Anisotropy =   132.2891

      3  C    Isotropic =    43.4393   Anisotropy =    87.9399

      4  O    Isotropic =    40.8605   Anisotropy =   299.0238

      5  C    Isotropic =    51.3404   Anisotropy =    97.7658

      6  P    Isotropic =   441.4456   Anisotropy =    41.0127

      7  C    Isotropic =    44.3256   Anisotropy =    88.9905

      8  C    Isotropic =    74.7683   Anisotropy =   128.3376

      9  C    Isotropic =    84.6415   Anisotropy =   120.0517

     10  C    Isotropic =    51.5395   Anisotropy =    99.4830

     11  O    Isotropic =    37.8605   Anisotropy =   292.8201

     12  C    Isotropic =    44.9820   Anisotropy =    91.1920

     13  C    Isotropic =    72.3274   Anisotropy =   127.2773

     14  C    Isotropic =    84.7496   Anisotropy =   119.6840

     15  C    Isotropic =    50.5626   Anisotropy =    99.8987

     16  O    Isotropic =    42.0018   Anisotropy =   298.4070

     17  H    Isotropic =    26.1203   Anisotropy =     2.3918

     18  H    Isotropic =    25.8839   Anisotropy =     7.4924

     19  H    Isotropic =    24.9005   Anisotropy =     3.6594

     20  H    Isotropic =    25.3313   Anisotropy =     7.1992

     21  H    Isotropic =    26.0089   Anisotropy =     2.2836

     22  H    Isotropic =    24.8344   Anisotropy =     3.4766

     23  H    Isotropic =    25.5345   Anisotropy =     4.9901

     24  H    Isotropic =    26.1061   Anisotropy =     2.4547

     25  H    Isotropic =    24.7782   Anisotropy =     4.1587

  Exact polarizability: 161.518   4.167 155.420   8.379  -0.285 125.471
 Approx polarizability: 228.240   9.695 217.875  21.139  -4.358 237.074

                      1                      2                      3
                      A                      A                      A
 Frequencies --     23.5019                42.9534                50.2865
 Red. masses --      4.7153                 4.6936                 4.7247
 Frc consts  --      0.0015                 0.0051                 0.0070
 IR Inten    --      0.2988                 0.1546                 0.6077

                      4                      5                      6
                      A                      A                      A
 Frequencies --     53.1641                64.2514                86.8186
 Red. masses --      5.7560                 5.3380                 5.5009
 Frc consts  --      0.0096                 0.0130                 0.0244
 IR Inten    --      0.2953                 0.3000                 0.5092

                      7                      8                      9
                      A                      A                      A
 Frequencies --    188.7416               215.2547               232.3187
 Red. masses --      5.7907                 5.9398                 5.5889
 Frc consts  --      0.1215                 0.1622                 0.1777
 IR Inten    --      0.3972                 1.0809                 2.8246

                     10                     11                     12
                      A                      A                      A
 Frequencies --    285.1634               290.2801               302.4427
 Red. masses --      7.4881                 6.5775                 5.6777
 Frc consts  --      0.3588                 0.3265                 0.3060
 IR Inten    --      2.5781                 3.8854                 5.0020

                     13                     14                     15
                      A                      A                      A
 Frequencies --    483.5271               493.5934               498.2183
 Red. masses --     12.8952                14.4797                12.8583
 Frc consts  --      1.7763                 2.0785                 1.8805
 IR Inten    --     28.2866                52.7767                35.8181

                     16                     17                     18
                      A                      A                      A
 Frequencies --    610.6604               610.7856               612.3026
 Red. masses --      3.1911                 3.2731                 3.3008
 Frc consts  --      0.7011                 0.7194                 0.7291
 IR Inten    --      3.7775                 8.4848                 7.9364

                     19                     20                     21
                      A                      A                      A
 Frequencies --    650.6828               660.8680               669.6418
 Red. masses --      6.1766                 6.0747                 6.1724
 Frc consts  --      1.5408                 1.5632                 1.6308
 IR Inten    --      0.6468                 4.2466                 4.7612

                     22                     23                     24
                      A                      A                      A
 Frequencies --    752.8099               755.9236               758.5680
 Red. masses --      1.2926                 1.2912                 1.2879
 Frc consts  --      0.4316                 0.4347                 0.4366
 IR Inten    --     40.1989                41.7707                44.0641

                     25                     26                     27
                      A                      A                      A
 Frequencies --    825.0943               830.0490               831.3101
 Red. masses --      1.2389                 1.2382                 1.2478
 Frc consts  --      0.4969                 0.5026                 0.5081
 IR Inten    --     10.0839                 6.0315                11.7825

                     28                     29                     30
                      A                      A                      A
 Frequencies --    878.5308               882.8039               883.7051
 Red. masses --      1.3004                 1.3106                 1.2970
 Frc consts  --      0.5914                 0.6018                 0.5968
 IR Inten    --      1.1532                 0.4357                 2.1103

                     31                     32                     33
                      A                      A                      A
 Frequencies --    899.0018               899.8654               900.8031
 Red. masses --      6.2894                 6.2561                 6.2682
 Frc consts  --      2.9949                 2.9847                 2.9968
 IR Inten    --      2.9096                 4.1177                 4.1302

                     34                     35                     36
                      A                      A                      A
 Frequencies --    921.2266               924.7235               925.8629
 Red. masses --      4.8268                 4.7146                 4.6981
 Frc consts  --      2.4135                 2.3753                 2.3728
 IR Inten    --      6.8182                14.8278                 5.4132

                     37                     38                     39
                      A                      A                      A
 Frequencies --   1036.3051              1036.9532              1038.8312
 Red. masses --      1.4160                 1.4167                 1.4097
 Frc consts  --      0.8959                 0.8975                 0.8963
 IR Inten    --     33.6874                26.7977                30.3425

                     40                     41                     42
                      A                      A                      A
 Frequencies --   1099.3547              1103.5739              1106.0454
 Red. masses --      2.4618                 2.2113                 2.1882
 Frc consts  --      1.7530                 1.5867                 1.5772
 IR Inten    --      1.4137                 1.2544                 1.7709

                     43                     44                     45
                      A                      A                      A
 Frequencies --   1138.4065              1143.3308              1148.6133
 Red. masses --      5.5696                 5.3145                 5.9061
 Frc consts  --      4.2527                 4.0931                 4.5909
 IR Inten    --      6.9705                12.5576                17.1618

                     46                     47                     48
                      A                      A                      A
 Frequencies --   1190.1448              1196.7806              1199.0542
 Red. masses --      2.0577                 2.2032                 2.3056
 Frc consts  --      1.7173                 1.8593                 1.9530
 IR Inten    --      7.6913                 9.6539                 3.3177

                     49                     50                     51
                      A                      A                      A
 Frequencies --   1248.0225              1250.7359              1254.0788
 Red. masses --      1.6489                 1.6686                 1.6314
 Frc consts  --      1.5132                 1.5379                 1.5117
 IR Inten    --      8.3850                12.3678                15.7945

                     52                     53                     54
                      A                      A                      A
 Frequencies --   1417.5952              1419.0733              1421.0332
 Red. masses --      2.5308                 2.5469                 2.5789
 Frc consts  --      2.9965                 3.0219                 3.0683
 IR Inten    --      0.9429                 1.3089                 6.8516

                     55                     56                     57
                      A                      A                      A
 Frequencies --   1491.9856              1494.3254              1499.9154
 Red. masses --      5.4907                 5.4446                 5.4811
 Frc consts  --      7.2012                 7.1631                 7.2652
 IR Inten    --     13.3722                12.4377                 9.8071

                     58                     59                     60
                      A                      A                      A
 Frequencies --   1606.3404              1608.0226              1612.0040
 Red. masses --      4.8495                 4.8721                 4.8955
 Frc consts  --      7.3726                 7.4226                 7.4951
 IR Inten    --      2.5511                 3.9506                 2.1210

                     61                     62                     63
                      A                      A                      A
 Frequencies --   3263.8543              3265.2143              3265.2821
 Red. masses --      1.0904                 1.0907                 1.0903
 Frc consts  --      6.8438                 6.8516                 6.8492
 IR Inten    --      4.4849                 3.7632                 2.8205

                     64                     65                     66
                      A                      A                      A
 Frequencies --   3276.6230              3282.2181              3288.1157
 Red. masses --      1.0968                 1.0970                 1.0966
 Frc consts  --      6.9378                 6.9628                 6.9853
 IR Inten    --      0.9282                 0.9085                 0.2742

                     67                     68                     69
                      A                      A                      A
 Frequencies --   3296.6739              3298.2771              3299.4653
 Red. masses --      1.1057                 1.1046                 1.1048
 Frc consts  --      7.0798                 7.0801                 7.0865
 IR Inten    --      2.3375                 2.7293                 2.1602

 - Thermochemistry -
 -------------------
 Temperature   298.150 Kelvin.  Pressure   1.00000 Atm.
 Atom     1 has atomic number  6 and mass  12.00000

 Molecular mass:   232.02893 amu.
 Principal axes and moments of inertia in atomic units:
                           1         2         3
     Eigenvalues --  3513.055613711.407995971.48097
           X            0.99869   0.05058   0.00799
           Y           -0.05063   0.99870   0.00647
           Z           -0.00766  -0.00687   0.99995
 This molecule is an asymmetric top.
 Rotational symmetry number  1.
 Warning -- assumption of classical behavior for rotation
           may cause significant error
 Rotational temperatures (Kelvin)      0.02465     0.02334     0.01450
 Rotational constants (GHZ):           0.51372     0.48627     0.30223
 Zero-point vibrational energy     480252.7 (Joules/Mol)
                                  114.78316 (Kcal/Mol)
 Warning -- explicit consideration of  18 degrees of freedom as
           vibrations may cause significant error
 Vibrational temperatures:     33.81    61.80    72.35    76.49    92.44
          (Kelvin)            124.91   271.56   309.70   334.25   410.29
                              417.65   435.15   695.69   710.17   716.83
                              878.60   878.78   880.97   936.19   950.84
                              963.47  1083.13  1087.61  1091.41  1187.13
                             1194.26  1196.07  1264.01  1270.16  1271.45
                             1293.46  1294.71  1296.05  1325.44  1330.47
                             1332.11  1491.01  1491.94  1494.65  1581.73
                             1587.80  1591.35  1637.91  1645.00  1652.60
                             1712.35  1721.90  1725.17  1795.63  1799.53
                             1804.34  2039.60  2041.73  2044.55  2146.63
                             2150.00  2158.04  2311.17  2313.59  2319.31
                             4695.96  4697.92  4698.01  4714.33  4722.38
                             4730.87  4743.18  4745.49  4747.19

 Zero-point correction=                           0.182919 (Hartree/Particle)
 Thermal correction to Energy=                    0.196520
 Thermal correction to Enthalpy=                  0.197464
 Thermal correction to Gibbs Free Energy=         0.139367
 Sum of electronic and zero-point Energies=          -1029.442881
 Sum of electronic and thermal Energies=             -1029.429280
 Sum of electronic and thermal Enthalpies=           -1029.428335
 Sum of electronic and thermal Free Energies=        -1029.486432

                     E (Thermal)             CV                S
                      KCal/Mol        Cal/Mol-Kelvin    Cal/Mol-Kelvin
 Total                  123.318             50.767            122.275
 Electronic               0.000              0.000              0.000
 Translational            0.889              2.981             42.227
 Rotational               0.889              2.981             32.721
 Vibrational            121.540             44.805             47.327
 Vibration     1          0.593              1.985              6.314
 Vibration     2          0.595              1.980              5.118
 Vibration     3          0.595              1.977              4.806
 Vibration     4          0.596              1.976              4.696
 Vibration     5          0.597              1.971              4.322
 Vibration     6          0.601              1.958              3.731
 Vibration     7          0.633              1.855              2.240
 Vibration     8          0.645              1.818              1.999
 Vibration     9          0.653              1.792              1.861
 Vibration    10          0.683              1.701              1.502
 Vibration    11          0.686              1.692              1.472
 Vibration    12          0.694              1.669              1.403
 Vibration    13          0.840              1.287              0.701
 Vibration    14          0.849              1.264              0.674
 Vibration    15          0.854              1.254              0.663
 Vibration    16          0.970              1.009              0.432
 Vibration    17          0.970              1.009              0.431
 Vibration    18          0.972              1.006              0.429

 Optimization completed.
    -- Stationary point found.
 Normal termination of Gaussian 16 at Sun Aug 23 14:08:35 2020.
 Gaussian 16:  ES64L-G16RevA.03 25-Dec-2016

 ----------------------------------------------------------------------
 # TD(NStates=10, Root=1) B3LYP/6-31G* scf=qc volume pop=NPA density=cu
 rrent Geom=AllCheck Guess=Read
 ----------------------------------------------------------------------

 Structure from the checkpoint file:  "phosphine_9_conf233.chk"
 -------------------
 Title Card Required
 -------------------
 Charge =  0 Multiplicity = 1

                         Standard orientation:
 ---------------------------------------------------------------------
 Center     Atomic      Atomic             Coordinates (Angstroms)
 Number     Number       Type             X           Y           Z
 ---------------------------------------------------------------------
      1          6           0       -0.903693    3.327416    1.078531
      2          6           0       -0.121896    2.134545    0.968690
      3          6           0       -0.505759    1.514587   -0.189863
      4          8           0       -1.479746    2.268241   -0.806930
      5          6           0       -1.709440    3.351913   -0.019785
      6         15           0        0.007199    0.020398   -1.109085
      7          6           0        1.586803   -0.339529   -0.267587
      8          6           0        1.976278   -1.005104    0.865032
      9          6           0        3.405775   -0.959699    0.902410
     10          6           0        3.789127   -0.269457   -0.207839
     11          8           0        2.706119    0.109281   -0.934677
     12          6           0       -1.066080   -1.261613   -0.392489
     13          6           0       -1.821989   -2.207706   -1.031959
     14          6           0       -2.500584   -2.958495   -0.021096
     15          6           0       -2.114862   -2.415142    1.166644
     16          8           0       -1.248566   -1.385660    0.969422
     17          1           0       -0.869055    4.065078    1.868461
     18          1           0        0.628797    1.774833    1.657612
     19          1           0       -2.463552    4.037788   -0.375987
     20          1           0        1.314349   -1.468172    1.582167
     21          1           0        4.056863   -1.384209    1.654155
     22          1           0        4.747779    0.022564   -0.609848
     23          1           0       -1.884792   -2.344158   -2.102800
     24          1           0       -3.184004   -3.784418   -0.160661
     25          1           0       -2.358897   -2.630456    2.196517
 ---------------------------------------------------------------------

 SCF Done:  E(RB3LYP) =  -1029.62579912     a.u. after    1 cycles

 Excitation energies and oscillator strengths:

 Excited State   1:      Singlet-A      4.6197 eV  268.38 nm  f=0.0682  <S**2>=0.000
      60 -> 61         0.69219
 This state for optimization and/or second-order correction.
 Total Energy, E(TD-HF/TD-DFT) =  -1029.45602711
 Copying the excited state density for this state as the 1-particle RhoCI density.

 Excited State   2:      Singlet-A      4.9084 eV  252.60 nm  f=0.1457  <S**2>=0.000
      59 -> 61        -0.19600
      60 -> 62         0.66564

 Excited State   3:      Singlet-A      5.1909 eV  238.85 nm  f=0.1273  <S**2>=0.000
      58 -> 62        -0.10011
      59 -> 61         0.65565
      60 -> 62         0.19680

 Excited State   4:      Singlet-A      5.4606 eV  227.05 nm  f=0.0340  <S**2>=0.000
      58 -> 61        -0.20041
      58 -> 62         0.57271
      59 -> 61         0.11712
      59 -> 62        -0.23963
      60 -> 63         0.22671

 Excited State   5:      Singlet-A      5.4720 eV  226.58 nm  f=0.0843  <S**2>=0.000
      58 -> 61        -0.23675
      58 -> 62         0.26265
      59 -> 62         0.50751
      60 -> 63        -0.32409

 Excited State   6:      Singlet-A      5.5394 eV  223.82 nm  f=0.1988  <S**2>=0.000
      58 -> 61         0.53154
      58 -> 62         0.27105
      60 -> 63        -0.33406

 Excited State   7:      Singlet-A      5.8895 eV  210.52 nm  f=0.0189  <S**2>=0.000
      57 -> 61         0.55579
      58 -> 61         0.14832
      59 -> 62         0.21342
      60 -> 63         0.28836

 Excited State   8:      Singlet-A      6.0639 eV  204.46 nm  f=0.0570  <S**2>=0.000
      57 -> 61         0.34725
      57 -> 62        -0.17054
      58 -> 61        -0.21144
      58 -> 63        -0.19408
      59 -> 62        -0.25637
      59 -> 63        -0.25541
      60 -> 63        -0.30931

 Excited State   9:      Singlet-A      6.1371 eV  202.02 nm  f=0.0155  <S**2>=0.000
      57 -> 62         0.61193
      59 -> 62        -0.11253
      59 -> 63         0.13071
      60 -> 63        -0.11086
      60 -> 64        -0.20772

 Excited State  10:      Singlet-A      6.3118 eV  196.43 nm  f=0.0932  <S**2>=0.000
      55 -> 61         0.10836
      57 -> 61         0.13120
      58 -> 63        -0.19809
      59 -> 63         0.56320
      60 -> 64         0.21842

 The electronic state is 1-A.
 Alpha  occ. eigenvalues --  -77.10228 -19.21811 -19.21418 -19.21092 -10.24306
 Alpha  occ. eigenvalues --  -10.23775 -10.23727 -10.23576 -10.23451 -10.23154
 Alpha  occ. eigenvalues --  -10.19423 -10.19152 -10.18867 -10.18784 -10.18518
 Alpha  occ. eigenvalues --  -10.18459  -6.56881  -4.73155  -4.73133  -4.72643
 Alpha  occ. eigenvalues --   -1.10826  -1.10537  -1.10196  -0.80154  -0.79784
 Alpha  occ. eigenvalues --   -0.79335  -0.77389  -0.73965  -0.73581  -0.64781
 Alpha  occ. eigenvalues --   -0.60165  -0.59607  -0.59395  -0.56099  -0.55517
 Alpha  occ. eigenvalues --   -0.54678  -0.53200  -0.53006  -0.48906  -0.45294
 Alpha  occ. eigenvalues --   -0.44963  -0.44182  -0.43586  -0.42485  -0.41756
 Alpha  occ. eigenvalues --   -0.40640  -0.40085  -0.39773  -0.38951  -0.38568
 Alpha  occ. eigenvalues --   -0.37223  -0.36248  -0.35704  -0.28207  -0.27807
 Alpha  occ. eigenvalues --   -0.27402  -0.26731  -0.23645  -0.23167  -0.21034
 Alpha virt. eigenvalues --   -0.01506  -0.00682   0.01947   0.05415   0.06001
 Alpha virt. eigenvalues --    0.06873   0.07900   0.09328   0.11013   0.12588
 Alpha virt. eigenvalues --    0.12760   0.13258   0.13995   0.15293   0.15760

 Mulliken charges:
               1
     1  C   -0.169758
     2  C   -0.144061
     3  C    0.169450
     4  O   -0.396586
     5  C    0.139276
     6  P    0.359159
     7  C    0.083525
     8  C   -0.170319
     9  C   -0.177048
    10  C    0.089002
    11  O   -0.418341
    12  C    0.050422
    13  C   -0.201153
    14  C   -0.177135
    15  C    0.026013
    16  O   -0.459802
    17  H    0.176586
    18  H    0.191740
    19  H    0.198549
    20  H    0.177745
    21  H    0.148480
    22  H    0.161263
    23  H    0.112147
    24  H    0.112491
    25  H    0.118355
 Sum of Mulliken charges =  -0.00000

 Dipole moment (field-independent basis, Debye):
    X=              1.7058    Y=              6.0681    Z=              2.2247  Tot=              6.6844
 Quadrupole moment (field-independent basis, Debye-Ang):
   XX=            -89.2002   YY=            -84.0112   ZZ=            -95.0896
   XY=            -10.1966   XZ=              2.1999   YZ=              2.4847

 Summary of Natural Population Analysis:

                                       Natural Population
                Natural  -----------------------------------------------
    Atom  No    Charge         Core      Valence    Rydberg      Total
 -----------------------------------------------------------------------
      C    1   -0.30514      1.99911     4.29304    0.01299     6.30514
      C    2   -0.25834      1.99894     4.24464    0.01477     6.25834
      C    3    0.06370      1.99893     3.89960    0.03777     5.93630
      O    4   -0.45428      1.99974     6.43542    0.01911     8.45428
      C    5    0.20426      1.99906     3.77452    0.02216     5.79574
      P    6    0.96378      9.99765     3.97359    0.06498    14.03622
      C    7   -0.07526      1.99892     4.03810    0.03823     6.07526
      C    8   -0.29821      1.99894     4.28328    0.01599     6.29821
      C    9   -0.32392      1.99909     4.31185    0.01298     6.32392
      C   10    0.11833      1.99905     3.85806    0.02456     5.88167
      O   11   -0.46451      1.99975     6.45159    0.01317     8.46451
      C   12   -0.18797      1.99878     4.15434    0.03486     6.18797
      C   13   -0.34024      1.99892     4.32536    0.01596     6.34024
      C   14   -0.34035      1.99908     4.32795    0.01332     6.34035
      C   15    0.01879      1.99904     3.95626    0.02590     5.98121
      O   16   -0.51158      1.99974     6.49761    0.01423     8.51158
      H   17    0.26204      0.00000     0.73749    0.00046     0.73796
      H   18    0.27261      0.00000     0.72680    0.00059     0.72739
      H   19    0.24093      0.00000     0.75872    0.00035     0.75907
      H   20    0.26737      0.00000     0.73129    0.00134     0.73263
      H   21    0.24996      0.00000     0.74958    0.00046     0.75004
      H   22    0.22535      0.00000     0.77411    0.00054     0.77465
      H   23    0.23231      0.00000     0.76733    0.00036     0.76769
      H   24    0.23363      0.00000     0.76597    0.00040     0.76637
      H   25    0.20672      0.00000     0.79287    0.00041     0.79328
 =======================================================================
   * Total *   -0.00000     39.98473    79.62938    0.38588   120.00000

 Normal termination of Gaussian 16 at Sun Aug 23 14:17:19 2020.
