 Gaussian 16, Revision A.03,

 ---------------------------------
 # opt=CalcAll B3LYP/6-31G* scf=qc
 ---------------------------------

 -------------------
 Title Card Required
 -------------------
 Symbolic Z-matrix:
 Charge =  0 Multiplicity = 1

 SCF Done:  E(RB3LYP) =  -814.887447839     a.u. after    7 cycles
 SCF Done:  E(RB3LYP) =  -814.891212177     a.u. after   13 cycles
 SCF Done:  E(RB3LYP) =  -814.907338235     a.u. after   15 cycles
 SCF Done:  E(RB3LYP) =  -814.908179313     a.u. after   15 cycles
 SCF Done:  E(RB3LYP) =  -814.909230527     a.u. after   13 cycles
 SCF Done:  E(RB3LYP) =  -814.909312423     a.u. after    9 cycles
 SCF Done:  E(RB3LYP) =  -814.909318464     a.u. after    5 cycles
 SCF Done:  E(RB3LYP) =  -814.909329964     a.u. after    9 cycles
 SCF Done:  E(RB3LYP) =  -814.909330509     a.u. after    3 cycles
 SCF Done:  E(RB3LYP) =  -814.909330936     a.u. after    4 cycles
 SCF Done:  E(RB3LYP) =  -814.909330901     a.u. after    2 cycles
 Optimization completed.
    -- Stationary point found.
 Normal termination of Gaussian 16 at Sun Aug 23 08:40:13 2020.

 ----------------------------------------------------------------------
 # freq B3LYP/6-31G* scf=qc volume NMR pop=NPA density=current Geom=All
 Check Guess=Read
 ----------------------------------------------------------------------

 Structure from the checkpoint file:  "phosphine_2_conf212.chk"
 -------------------
 Title Card Required
 -------------------
 Charge =  0 Multiplicity = 1

 SCF Done:  E(RB3LYP) =  -814.909330901     a.u. after    1 cycles

      1  C    Isotropic =   176.0168   Anisotropy =    18.8831

      2  C    Isotropic =   164.0330   Anisotropy =    17.3948

      3  C    Isotropic =   164.2553   Anisotropy =    18.8663

      4  C    Isotropic =   160.0683   Anisotropy =    20.2523

      5  H    Isotropic =    30.4726   Anisotropy =     7.1090

      6  H    Isotropic =    31.0615   Anisotropy =     7.1929

      7  P    Isotropic =   390.8821   Anisotropy =    20.6405

      8  C    Isotropic =   159.0031   Anisotropy =    24.0756

      9  H    Isotropic =    31.1555   Anisotropy =     5.9128

     10  H    Isotropic =    30.1135   Anisotropy =     5.5355

     11  C    Isotropic =   157.7737   Anisotropy =    24.1039

     12  C    Isotropic =   163.0626   Anisotropy =    18.1814

     13  C    Isotropic =   175.6575   Anisotropy =    18.3596

     14  C    Isotropic =   158.7782   Anisotropy =    23.8311

     15  H    Isotropic =    30.0913   Anisotropy =     5.5008

     16  H    Isotropic =    31.1596   Anisotropy =     5.9626

     17  C    Isotropic =   158.0706   Anisotropy =    23.5796

     18  C    Isotropic =   163.0390   Anisotropy =    18.1863

     19  C    Isotropic =   175.6438   Anisotropy =    18.3419

     20  H    Isotropic =    31.1736   Anisotropy =    10.4988

     21  H    Isotropic =    31.5184   Anisotropy =     7.8212

     22  H    Isotropic =    30.9868   Anisotropy =     6.3469

     23  H    Isotropic =    30.4938   Anisotropy =     8.7923

     24  H    Isotropic =    30.8767   Anisotropy =     7.1846

     25  H    Isotropic =    30.7373   Anisotropy =     5.6865

     26  H    Isotropic =    30.4747   Anisotropy =     7.4823

     27  H    Isotropic =    30.3196   Anisotropy =     6.3654

     28  H    Isotropic =    30.7194   Anisotropy =     5.6943

     29  H    Isotropic =    30.7950   Anisotropy =     7.2924

     30  H    Isotropic =    30.4599   Anisotropy =     9.2994

     31  H    Isotropic =    30.9179   Anisotropy =     5.7347

     32  H    Isotropic =    31.1326   Anisotropy =    10.3695

     33  H    Isotropic =    31.4417   Anisotropy =     7.5614

     34  H    Isotropic =    30.7230   Anisotropy =     5.8924

     35  H    Isotropic =    30.3386   Anisotropy =     6.3028

     36  H    Isotropic =    30.4542   Anisotropy =     9.2843

     37  H    Isotropic =    30.7882   Anisotropy =     7.2464

     38  H    Isotropic =    31.4410   Anisotropy =     7.5863

     39  H    Isotropic =    31.1281   Anisotropy =    10.3676

     40  H    Isotropic =    30.9151   Anisotropy =     5.7562

  Exact polarizability: 170.630  -0.076 157.793  -0.339   0.127 132.521
 Approx polarizability: 214.863  -0.640 213.042  -1.109   0.499 195.036

                      1                      2                      3
                      A                      A                      A
 Frequencies --     15.5840                27.8619                31.0100
 Red. masses --      2.0858                 2.8320                 2.6896
 Frc consts  --      0.0003                 0.0013                 0.0015
 IR Inten    --      0.0131                 0.0007                 0.0114

                      4                      5                      6
                      A                      A                      A
 Frequencies --     49.1095                59.0798                73.5470
 Red. masses --      2.9833                 2.7983                 2.7096
 Frc consts  --      0.0042                 0.0058                 0.0086
 IR Inten    --      0.0110                 0.1098                 0.1217

                      7                      8                      9
                      A                      A                      A
 Frequencies --     79.0997               115.5147               126.6102
 Red. masses --      2.7283                 2.2004                 1.8243
 Frc consts  --      0.0101                 0.0173                 0.0172
 IR Inten    --      0.1601                 0.0054                 0.0029

                     10                     11                     12
                      A                      A                      A
 Frequencies --    137.9400               165.0533               188.6925
 Red. masses --      1.7742                 1.7611                 1.7284
 Frc consts  --      0.0199                 0.0283                 0.0363
 IR Inten    --      0.0146                 0.2623                 0.1319

                     13                     14                     15
                      A                      A                      A
 Frequencies --    213.7615               221.8951               238.3562
 Red. masses --      1.8544                 2.2381                 1.6095
 Frc consts  --      0.0499                 0.0649                 0.0539
 IR Inten    --      0.1051                 0.2049                 0.2266

                     16                     17                     18
                      A                      A                      A
 Frequencies --    252.9549               278.2314               281.9790
 Red. masses --      2.6113                 1.8088                 1.4739
 Frc consts  --      0.0984                 0.0825                 0.0690
 IR Inten    --      0.5777                 0.0041                 0.0199

                     19                     20                     21
                      A                      A                      A
 Frequencies --    300.2065               308.4296               381.6575
 Red. masses --      2.0828                 1.9716                 3.0616
 Frc consts  --      0.1106                 0.1105                 0.2628
 IR Inten    --      0.3498                 0.5030                 0.2905

                     22                     23                     24
                      A                      A                      A
 Frequencies --    430.0287               431.8523               451.5894
 Red. masses --      2.4152                 2.3880                 3.2732
 Frc consts  --      0.2631                 0.2624                 0.3933
 IR Inten    --      0.8319                 2.4628                 4.1337

                     25                     26                     27
                      A                      A                      A
 Frequencies --    678.6827               693.9341               709.7123
 Red. masses --      2.7328                 1.7495                 2.7693
 Frc consts  --      0.7416                 0.4964                 0.8218
 IR Inten    --      2.1760                 0.4044                 3.2561

                     28                     29                     30
                      A                      A                      A
 Frequencies --    716.7324               747.5124               751.0560
 Red. masses --      1.1759                 1.3304                 1.5451
 Frc consts  --      0.3559                 0.4380                 0.5135
 IR Inten    --      0.0252                13.0799                15.9100

                     31                     32                     33
                      A                      A                      A
 Frequencies --    788.2889               793.4479               798.2900
 Red. masses --      1.2940                 1.4656                 1.3626
 Frc consts  --      0.4738                 0.5436                 0.5116
 IR Inten    --      1.0149                 1.8347                 4.5198

                     34                     35                     36
                      A                      A                      A
 Frequencies --    867.6369               874.5040               882.2463
 Red. masses --      2.5490                 2.5445                 2.5141
 Frc consts  --      1.1305                 1.1465                 1.1530
 IR Inten    --      0.5717                 0.6757                 1.0856

                     37                     38                     39
                      A                      A                      A
 Frequencies --    899.7877               925.8018               942.0531
 Red. masses --      1.3142                 1.3986                 1.4204
 Frc consts  --      0.6269                 0.7063                 0.7427
 IR Inten    --      0.4815                 8.3666                 2.8617

                     40                     41                     42
                      A                      A                      A
 Frequencies --    982.6733               985.5930               989.0357
 Red. masses --      2.0847                 1.9962                 1.9314
 Frc consts  --      1.1860                 1.1425                 1.1131
 IR Inten    --      2.2346                 1.6645                 6.5204

                     43                     44                     45
                      A                      A                      A
 Frequencies --   1050.7920              1072.0161              1077.9499
 Red. masses --      1.2674                 2.0079                 2.1523
 Frc consts  --      0.8245                 1.3595                 1.4735
 IR Inten    --      3.8077                 0.6860                 2.4405

                     46                     47                     48
                      A                      A                      A
 Frequencies --   1083.0586              1087.7838              1097.8158
 Red. masses --      2.1997                 1.5880                 1.4100
 Frc consts  --      1.5203                 1.1071                 1.0013
 IR Inten    --      0.0692                 0.8455                 5.8654

                     49                     50                     51
                      A                      A                      A
 Frequencies --   1113.6280              1122.0072              1126.6246
 Red. masses --      1.6407                 1.7289                 1.7722
 Frc consts  --      1.1988                 1.2824                 1.3254
 IR Inten    --      0.0463                 1.5013                 5.7180

                     52                     53                     54
                      A                      A                      A
 Frequencies --   1220.9030              1231.5204              1233.7991
 Red. masses --      1.4966                 1.4291                 1.4303
 Frc consts  --      1.3144                 1.2770                 1.2828
 IR Inten    --      0.3120                 1.4844                 5.5702

                     55                     56                     57
                      A                      A                      A
 Frequencies --   1244.3231              1261.5820              1266.5218
 Red. masses --      1.3800                 1.3471                 1.3379
 Frc consts  --      1.2589                 1.2632                 1.2644
 IR Inten    --      1.5563                 2.0322                 1.8361

                     58                     59                     60
                      A                      A                      A
 Frequencies --   1316.2368              1319.3052              1321.1458
 Red. masses --      1.1957                 1.1903                 1.1855
 Frc consts  --      1.2205                 1.2206                 1.2191
 IR Inten    --      0.1006                 0.7546                 1.2792

                     61                     62                     63
                      A                      A                      A
 Frequencies --   1334.4729              1340.1168              1342.0572
 Red. masses --      1.1470                 1.1417                 1.1626
 Frc consts  --      1.2034                 1.2081                 1.2338
 IR Inten    --      2.6090                 3.2574                 1.3598

                     64                     65                     66
                      A                      A                      A
 Frequencies --   1389.5829              1391.4811              1395.4816
 Red. masses --      1.4285                 1.3954                 1.3447
 Frc consts  --      1.6251                 1.5918                 1.5428
 IR Inten    --      1.1413                 2.8274                 5.2775

                     67                     68                     69
                      A                      A                      A
 Frequencies --   1397.3192              1398.4733              1400.2258
 Red. masses --      1.3429                 1.3498                 1.3680
 Frc consts  --      1.5448                 1.5554                 1.5803
 IR Inten    --      6.5165                11.8308                 4.8993

                     70                     71                     72
                      A                      A                      A
 Frequencies --   1441.9236              1442.4228              1442.7520
 Red. masses --      1.2587                 1.2595                 1.2587
 Frc consts  --      1.5419                 1.5440                 1.5437
 IR Inten    --      0.8758                10.7923                 5.8090

                     73                     74                     75
                      A                      A                      A
 Frequencies --   1487.1357              1491.0963              1497.1985
 Red. masses --      1.0877                 1.0865                 1.0833
 Frc consts  --      1.4173                 1.4232                 1.4307
 IR Inten    --      0.0377                 1.5751                 4.9344

                     76                     77                     78
                      A                      A                      A
 Frequencies --   1515.3888              1516.7505              1517.1060
 Red. masses --      1.0791                 1.0704                 1.0689
 Frc consts  --      1.4600                 1.4509                 1.4495
 IR Inten    --      3.2456                 1.8923                 0.4375

                     79                     80                     81
                      A                      A                      A
 Frequencies --   1518.0513              1519.9510              1522.1607
 Red. masses --      1.0757                 1.0811                 1.0802
 Frc consts  --      1.4605                 1.4716                 1.4747
 IR Inten    --      0.0286                 2.5683                 0.6452

                     82                     83                     84
                      A                      A                      A
 Frequencies --   1531.5179              1532.4916              1533.4605
 Red. masses --      1.0507                 1.0537                 1.0561
 Frc consts  --      1.4520                 1.4580                 1.4632
 IR Inten    --      1.1978                 5.1760                 7.6764

                     85                     86                     87
                      A                      A                      A
 Frequencies --   1537.9053              1538.5862              1538.6503
 Red. masses --      1.0612                 1.0603                 1.0601
 Frc consts  --      1.4788                 1.4789                 1.4787
 IR Inten    --      9.3729                 3.7096                 4.2343

                     88                     89                     90
                      A                      A                      A
 Frequencies --   3020.7312              3021.5754              3024.6507
 Red. masses --      1.0595                 1.0604                 1.0607
 Frc consts  --      5.6962                 5.7042                 5.7172
 IR Inten    --     19.4063                 1.1506                21.7943

                     91                     92                     93
                      A                      A                      A
 Frequencies --   3025.1995              3025.5437              3029.2058
 Red. masses --      1.0634                 1.0625                 1.0624
 Frc consts  --      5.7340                 5.7306                 5.7439
 IR Inten    --     36.0494                16.5766                15.1864

                     94                     95                     96
                      A                      A                      A
 Frequencies --   3030.7758              3035.8839              3037.4571
 Red. masses --      1.0627                 1.0635                 1.0652
 Frc consts  --      5.7515                 5.7752                 5.7902
 IR Inten    --     30.8256                26.2909                21.4590

                     97                     98                     99
                      A                      A                      A
 Frequencies --   3042.8091              3043.0107              3043.6241
 Red. masses --      1.0379                 1.0380                 1.0387
 Frc consts  --      5.6616                 5.6629                 5.6692
 IR Inten    --      1.4629                41.9403                23.8959

                    100                    101                    102
                      A                      A                      A
 Frequencies --   3059.1616              3059.5133              3059.9826
 Red. masses --      1.0963                 1.0983                 1.0958
 Frc consts  --      6.0451                 6.0574                 6.0451
 IR Inten    --     26.6989                 1.2891                69.2591

                    103                    104                    105
                      A                      A                      A
 Frequencies --   3060.8311              3064.9698              3065.7351
 Red. masses --      1.0986                 1.0993                 1.0990
 Frc consts  --      6.0643                 6.0842                 6.0858
 IR Inten    --      2.1954                 2.7378                 6.2960

                    106                    107                    108
                      A                      A                      A
 Frequencies --   3082.6942              3086.7397              3086.8422
 Red. masses --      1.1038                 1.1034                 1.1026
 Frc consts  --      6.1799                 6.1940                 6.1900
 IR Inten    --     40.5525                73.3083                57.5610

                    109                    110                    111
                      A                      A                      A
 Frequencies --   3106.2140              3106.7470              3107.1758
 Red. masses --      1.1015                 1.1015                 1.1013
 Frc consts  --      6.2615                 6.2638                 6.2644
 IR Inten    --     67.4855                26.4586                55.2216

                    112                    113                    114
                      A                      A                      A
 Frequencies --   3114.3539              3114.6924              3116.0413
 Red. masses --      1.1018                 1.1017                 1.1017
 Frc consts  --      6.2963                 6.2973                 6.3026
 IR Inten    --     25.0334                82.0629                48.3910

 - Thermochemistry -
 -------------------
 Temperature   298.150 Kelvin.  Pressure   1.00000 Atm.
 Atom     1 has atomic number  6 and mass  12.00000

 Molecular mass:   202.18504 amu.
 Principal axes and moments of inertia in atomic units:
                           1         2         3
     Eigenvalues --  3457.373924825.899446922.30421
           X            0.99999   0.00458  -0.00260
           Y           -0.00458   0.99999  -0.00067
           Z            0.00260   0.00068   1.00000
 This molecule is an asymmetric top.
 Rotational symmetry number  1.
 Warning -- assumption of classical behavior for rotation
           may cause significant error
 Rotational temperatures (Kelvin)      0.02505     0.01795     0.01251
 Rotational constants (GHZ):           0.52200     0.37397     0.26071
 Zero-point vibrational energy     976870.3 (Joules/Mol)
                                  233.47761 (Kcal/Mol)
 Warning -- explicit consideration of  24 degrees of freedom as
           vibrations may cause significant error
 Vibrational temperatures:     22.42    40.09    44.62    70.66    85.00
          (Kelvin)            105.82   113.81   166.20   182.16   198.46
                              237.47   271.49   307.56   319.26   342.94
                              363.95   400.31   405.70   431.93   443.76
                              549.12   618.72   621.34   649.74   976.47
                              998.42  1021.12  1031.22  1075.50  1080.60
                             1134.17  1141.59  1148.56  1248.34  1258.22
                             1269.36  1294.59  1332.02  1355.40  1413.85
                             1418.05  1423.00  1511.86  1542.39  1550.93
                             1558.28  1565.08  1579.51  1602.26  1614.32
                             1620.96  1756.61  1771.88  1775.16  1790.30
                             1815.14  1822.24  1893.77  1898.19  1900.83
                             1920.01  1928.13  1930.92  1999.30  2002.03
                             2007.79  2010.43  2012.09  2014.61  2074.61
                             2075.32  2075.80  2139.66  2145.36  2154.13
                             2180.31  2182.27  2182.78  2184.14  2186.87
                             2190.05  2203.51  2204.91  2206.31  2212.70
                             2213.68  2213.77  4346.16  4347.37  4351.80
                             4352.59  4353.08  4358.35  4360.61  4367.96
                             4370.22  4377.92  4378.21  4379.10  4401.45
                             4401.96  4402.63  4403.85  4409.81  4410.91
                             4435.31  4441.13  4441.28  4469.15  4469.92
                             4470.53  4480.86  4481.35  4483.29

 Zero-point correction=                           0.372070 (Hartree/Particle)
 Thermal correction to Energy=                    0.390793
 Thermal correction to Enthalpy=                  0.391737
 Thermal correction to Gibbs Free Energy=         0.322141
 Sum of electronic and zero-point Energies=           -814.537261
 Sum of electronic and thermal Energies=              -814.518538
 Sum of electronic and thermal Enthalpies=            -814.517593
 Sum of electronic and thermal Free Energies=         -814.587190

                     E (Thermal)             CV                S
                      KCal/Mol        Cal/Mol-Kelvin    Cal/Mol-Kelvin
 Total                  245.226             66.322            146.479
 Electronic               0.000              0.000              0.000
 Translational            0.889              2.981             41.817
 Rotational               0.889              2.981             33.112
 Vibrational            243.449             60.361             71.550
 Vibration     1          0.593              1.986              7.130
 Vibration     2          0.593              1.984              5.976
 Vibration     3          0.594              1.983              5.764
 Vibration     4          0.595              1.978              4.853
 Vibration     5          0.596              1.974              4.488
 Vibration     6          0.599              1.966              4.056
 Vibration     7          0.600              1.963              3.913
 Vibration     8          0.608              1.937              3.174
 Vibration     9          0.611              1.927              2.997
 Vibration    10          0.614              1.915              2.832
 Vibration    11          0.623              1.885              2.491
 Vibration    12          0.633              1.855              2.241
 Vibration    13          0.644              1.820              2.011
 Vibration    14          0.648              1.808              1.944
 Vibration    15          0.656              1.782              1.815
 Vibration    16          0.664              1.758              1.710
 Vibration    17          0.679              1.714              1.545
 Vibration    18          0.681              1.707              1.522
 Vibration    19          0.693              1.673              1.416
 Vibration    20          0.698              1.658              1.371
 Vibration    21          0.751              1.509              1.033
 Vibration    22          0.791              1.405              0.859
 Vibration    23          0.793              1.401              0.853
 Vibration    24          0.810              1.357              0.791

 Optimization completed.
    -- Stationary point found.
 Normal termination of Gaussian 16 at Sun Aug 23 08:47:44 2020.
 Gaussian 16:  ES64L-G16RevA.03 25-Dec-2016

 ----------------------------------------------------------------------
 # TD(NStates=10, Root=1) B3LYP/6-31G* scf=qc volume pop=NPA density=cu
 rrent Geom=AllCheck Guess=Read
 ----------------------------------------------------------------------

 Structure from the checkpoint file:  "phosphine_2_conf213.chk"
 -------------------
 Title Card Required
 -------------------
 Charge =  0 Multiplicity = 1

                         Standard orientation:
 ---------------------------------------------------------------------
 Center     Atomic      Atomic             Coordinates (Angstroms)
 Number     Number       Type             X           Y           Z
 ---------------------------------------------------------------------
      1          6           0        4.860257    0.005001    0.423657
      2          6           0        3.829390   -1.024424    0.901302
      3          6           0        2.362796   -0.627427    0.646565
      4          6           0        1.985010   -0.560073   -0.841779
      5          1           0        2.603139    0.184856   -1.359673
      6          1           0        2.216456   -1.520797   -1.324026
      7         15           0        0.211707   -0.160349   -1.330257
      8          6           0       -0.724592   -1.428292   -0.300300
      9          1           0       -0.207727   -2.386811   -0.454705
     10          1           0       -0.640653   -1.194483    0.768402
     11          6           0       -2.198401   -1.589947   -0.710019
     12          6           0       -2.928726   -2.738737    0.008184
     13          6           0       -3.102290   -2.539527    1.518554
     14          6           0       -0.057935    1.428440   -0.357925
     15          1           0       -0.026912    1.229825    0.720664
     16          1           0        0.804407    2.072282   -0.585156
     17          6           0       -1.347745    2.174913   -0.738288
     18          6           0       -1.490509    3.559758   -0.081874
     19          6           0       -1.649399    3.530009    1.442861
     20          1           0        5.878111   -0.309605    0.680951
     21          1           0        4.686750    0.982596    0.891205
     22          1           0        4.826404    0.146124   -0.662432
     23          1           0        3.962885   -1.186584    1.979752
     24          1           0        4.029250   -1.993230    0.421298
     25          1           0        2.170437    0.342935    1.124216
     26          1           0        1.714956   -1.353521    1.153805
     27          1           0       -2.247296   -1.759864   -1.793469
     28          1           0       -2.742616   -0.653155   -0.525542
     29          1           0       -2.390067   -3.679185   -0.177828
     30          1           0       -3.919572   -2.860605   -0.450290
     31          1           0       -2.138903   -2.491997    2.038688
     32          1           0       -3.673498   -3.363569    1.961321
     33          1           0       -3.641676   -1.608343    1.733860
     34          1           0       -2.223224    1.565437   -0.473877
     35          1           0       -1.379285    2.293778   -1.829218
     36          1           0       -2.362759    4.063529   -0.520301
     37          1           0       -0.618755    4.175037   -0.347613
     38          1           0       -2.516341    2.924791    1.737020
     39          1           0       -1.798603    4.539483    1.842945
     40          1           0       -0.767639    3.108134    1.938243
 ---------------------------------------------------------------------

 SCF Done:  E(RB3LYP) =  -814.909330901     a.u. after    1 cycles

 Excitation energies and oscillator strengths:

 Excited State   1:      Singlet-A      6.5461 eV  189.40 nm  f=0.1291  <S**2>=0.000
      57 -> 58        -0.40686
      57 -> 59         0.56471
 This state for optimization and/or second-order correction.
 Total Energy, E(TD-HF/TD-DFT) =  -814.668766730
 Copying the excited state density for this state as the 1-particle RhoCI density.

 Excited State   2:      Singlet-A      6.6361 eV  186.83 nm  f=0.1428  <S**2>=0.000
      57 -> 58         0.56639
      57 -> 59         0.40727

 Excited State   3:      Singlet-A      7.1020 eV  174.58 nm  f=0.0039  <S**2>=0.000
      57 -> 60         0.69665

 Excited State   4:      Singlet-A      7.5646 eV  163.90 nm  f=0.0134  <S**2>=0.000
      57 -> 61         0.67834
      57 -> 63        -0.12699

 Excited State   5:      Singlet-A      7.8599 eV  157.74 nm  f=0.0278  <S**2>=0.000
      57 -> 61         0.12796
      57 -> 62         0.64483
      57 -> 63         0.23093

 Excited State   6:      Singlet-A      7.9263 eV  156.42 nm  f=0.0105  <S**2>=0.000
      57 -> 62        -0.25324
      57 -> 63         0.62829
      57 -> 66         0.11085

 Excited State   7:      Singlet-A      8.0660 eV  153.71 nm  f=0.0002  <S**2>=0.000
      57 -> 64        -0.45383
      57 -> 65         0.51055
      57 -> 67        -0.10050

 Excited State   8:      Singlet-A      8.2787 eV  149.76 nm  f=0.0030  <S**2>=0.000
      55 -> 58        -0.10652
      56 -> 58        -0.17023
      56 -> 59         0.29992
      57 -> 64         0.41715
      57 -> 65         0.42659

 Excited State   9:      Singlet-A      8.3075 eV  149.24 nm  f=0.0055  <S**2>=0.000
      55 -> 58         0.48288
      55 -> 59         0.20960
      56 -> 58         0.12876
      56 -> 59        -0.32307
      57 -> 64         0.21392
      57 -> 65         0.18582

 Excited State  10:      Singlet-A      8.3139 eV  149.13 nm  f=0.0105  <S**2>=0.000
      57 -> 63        -0.11136
      57 -> 66         0.67913

 The electronic state is 1-A.
 Alpha  occ. eigenvalues --  -77.06367 -10.18083 -10.18061 -10.18020 -10.17934
 Alpha  occ. eigenvalues --  -10.17933 -10.17871 -10.17855 -10.17840 -10.17830
 Alpha  occ. eigenvalues --  -10.17260 -10.17173 -10.17169  -6.53137  -4.69391
 Alpha  occ. eigenvalues --   -4.69387  -4.68887  -0.79943  -0.78909  -0.78780
 Alpha  occ. eigenvalues --   -0.74062  -0.71257  -0.71226  -0.65876  -0.63463
 Alpha  occ. eigenvalues --   -0.63285  -0.57462  -0.56945  -0.56292  -0.51958
 Alpha  occ. eigenvalues --   -0.46302  -0.45924  -0.45204  -0.44511  -0.44174
 Alpha  occ. eigenvalues --   -0.43029  -0.41922  -0.41439  -0.40628  -0.39005
 Alpha  occ. eigenvalues --   -0.38622  -0.37995  -0.37151  -0.36727  -0.35611
 Alpha  occ. eigenvalues --   -0.35295  -0.35016  -0.33625  -0.33003  -0.32831
 Alpha  occ. eigenvalues --   -0.32584  -0.32197  -0.31953  -0.31583  -0.28747
 Alpha  occ. eigenvalues --   -0.28671  -0.21189
 Alpha virt. eigenvalues --    0.05816   0.05926   0.07954   0.09532   0.10708
 Alpha virt. eigenvalues --    0.11082   0.11704   0.11845   0.12057   0.13194
 Alpha virt. eigenvalues --    0.13580   0.14601   0.15113   0.15323   0.15923

 Mulliken charges:
               1
     1  C   -0.437797
     2  C   -0.242546
     3  C   -0.260851
     4  C   -0.417720
     5  H    0.147505
     6  H    0.144923
     7  P    0.298808
     8  C   -0.412235
     9  H    0.141254
    10  H    0.184209
    11  C   -0.231491
    12  C   -0.259110
    13  C   -0.442050
    14  C   -0.408474
    15  H    0.177836
    16  H    0.127449
    17  C   -0.215807
    18  C   -0.255204
    19  C   -0.437688
    20  H    0.141443
    21  H    0.139308
    22  H    0.139941
    23  H    0.127365
    24  H    0.132465
    25  H    0.138006
    26  H    0.135478
    27  H    0.136026
    28  H    0.126933
    29  H    0.127353
    30  H    0.131879
    31  H    0.136120
    32  H    0.143372
    33  H    0.142520
    34  H    0.116825
    35  H    0.124574
    36  H    0.126264
    37  H    0.124533
    38  H    0.138315
    39  H    0.138688
    40  H    0.131585
 Sum of Mulliken charges =  -0.00000

 Dipole moment (field-independent basis, Debye):
    X=              0.7239    Y=             -0.6043    Z=              0.7528  Tot=              1.2066
 Quadrupole moment (field-independent basis, Debye-Ang):
   XX=            -96.6750   YY=            -96.0830   ZZ=            -96.6400
   XY=              0.5852   XZ=             -0.3373   YZ=             -0.2160

 Summary of Natural Population Analysis:

                                       Natural Population
                Natural  -----------------------------------------------
    Atom  No    Charge         Core      Valence    Rydberg      Total
 -----------------------------------------------------------------------
      C    1   -0.67905      1.99946     4.67187    0.00772     6.67905
      C    2   -0.45025      1.99934     4.43953    0.01138     6.45025
      C    3   -0.45201      1.99930     4.44060    0.01211     6.45201
      C    4   -0.86893      1.99934     4.84575    0.02384     6.86893
      H    5    0.24265      0.00000     0.75448    0.00287     0.75735
      H    6    0.24489      0.00000     0.75246    0.00265     0.75511
      P    7    1.02065      9.99768     3.87351    0.10816    13.97935
      C    8   -0.76460      1.99930     4.74637    0.01894     6.76460
      H    9    0.22478      0.00000     0.76759    0.00763     0.77522
      H   10    0.26159      0.00000     0.73651    0.00190     0.73841
      C   11   -0.46495      1.99932     4.44816    0.01747     6.46495
      C   12   -0.46139      1.99934     4.44964    0.01240     6.46139
      C   13   -0.67742      1.99946     4.67043    0.00753     6.67742
      C   14   -0.79456      1.99930     4.77387    0.02139     6.79456
      H   15    0.25868      0.00000     0.73941    0.00191     0.74132
      H   16    0.22053      0.00000     0.77076    0.00871     0.77947
      C   17   -0.46444      1.99932     4.44819    0.01693     6.46444
      C   18   -0.45944      1.99934     4.44796    0.01213     6.45944
      C   19   -0.67677      1.99946     4.66976    0.00755     6.67677
      H   20    0.23217      0.00000     0.76637    0.00145     0.76783
      H   21    0.22266      0.00000     0.77594    0.00141     0.77734
      H   22    0.22093      0.00000     0.77586    0.00322     0.77907
      H   23    0.22941      0.00000     0.76703    0.00356     0.77059
      H   24    0.22777      0.00000     0.77023    0.00200     0.77223
      H   25    0.22712      0.00000     0.77084    0.00204     0.77288
      H   26    0.22944      0.00000     0.76883    0.00173     0.77056
      H   27    0.23603      0.00000     0.76186    0.00211     0.76397
      H   28    0.21975      0.00000     0.77056    0.00969     0.78025
      H   29    0.22414      0.00000     0.77342    0.00244     0.77586
      H   30    0.23314      0.00000     0.76494    0.00192     0.76686
      H   31    0.21797      0.00000     0.78079    0.00124     0.78203
      H   32    0.23269      0.00000     0.76636    0.00095     0.76731
      H   33    0.22440      0.00000     0.77420    0.00141     0.77560
      H   34    0.21375      0.00000     0.77565    0.01060     0.78625
      H   35    0.22966      0.00000     0.76588    0.00446     0.77034
      H   36    0.22900      0.00000     0.76815    0.00285     0.77100
      H   37    0.22295      0.00000     0.77380    0.00325     0.77705
      H   38    0.22213      0.00000     0.77610    0.00177     0.77787
      H   39    0.22917      0.00000     0.76923    0.00160     0.77083
      H   40    0.21577      0.00000     0.78164    0.00259     0.78423
 =======================================================================
   * Total *   -0.00000     33.98996    79.64455    0.36549   114.00000

 Normal termination of Gaussian 16 at Sun Aug 23 08:56:40 2020.
