 Gaussian 16, Revision A.03,

 ---------------------------------
 # opt=CalcAll B3LYP/6-31G* scf=qc
 ---------------------------------

 -------------------
 Title Card Required
 -------------------
 Symbolic Z-matrix:
 Charge =  0 Multiplicity = 1

 SCF Done:  E(RB3LYP) =  -814.897557858     a.u. after    7 cycles
 SCF Done:  E(RB3LYP) =  -814.910033145     a.u. after   13 cycles
 SCF Done:  E(RB3LYP) =  -814.910627658     a.u. after   13 cycles
 SCF Done:  E(RB3LYP) =  -814.911500594     a.u. after   13 cycles
 SCF Done:  E(RB3LYP) =  -814.911771284     a.u. after   13 cycles
 SCF Done:  E(RB3LYP) =  -814.911810464     a.u. after    7 cycles
 SCF Done:  E(RB3LYP) =  -814.911830480     a.u. after    7 cycles
 SCF Done:  E(RB3LYP) =  -814.911834405     a.u. after    5 cycles
 SCF Done:  E(RB3LYP) =  -814.911834804     a.u. after    3 cycles
 SCF Done:  E(RB3LYP) =  -814.911834806     a.u. after    2 cycles
 Optimization completed.
    -- Stationary point found.
 Normal termination of Gaussian 16 at Sun Aug 23 10:16:38 2020.

 ----------------------------------------------------------------------
 # freq B3LYP/6-31G* scf=qc volume NMR pop=NPA density=current Geom=All
 Check Guess=Read
 ----------------------------------------------------------------------

 Structure from the checkpoint file:  "phosphine_2_conf52.chk"
 -------------------
 Title Card Required
 -------------------
 Charge =  0 Multiplicity = 1

 SCF Done:  E(RB3LYP) =  -814.911834806     a.u. after    1 cycles

      1  C    Isotropic =   173.6476   Anisotropy =    24.3535

      2  C    Isotropic =   161.5490   Anisotropy =    23.7037

      3  C    Isotropic =   158.6557   Anisotropy =    29.2749

      4  C    Isotropic =   159.2193   Anisotropy =    21.7945

      5  H    Isotropic =    31.0102   Anisotropy =     6.2334

      6  H    Isotropic =    30.4624   Anisotropy =     4.7016

      7  P    Isotropic =   393.4227   Anisotropy =    26.2384

      8  C    Isotropic =   164.4194   Anisotropy =    21.1156

      9  H    Isotropic =    30.3524   Anisotropy =     6.3557

     10  H    Isotropic =    31.1883   Anisotropy =     7.5424

     11  C    Isotropic =   165.9835   Anisotropy =    17.7284

     12  C    Isotropic =   164.2643   Anisotropy =    17.0385

     13  C    Isotropic =   175.9477   Anisotropy =    18.7786

     14  C    Isotropic =   164.0537   Anisotropy =    24.0180

     15  H    Isotropic =    30.2572   Anisotropy =     4.4488

     16  H    Isotropic =    31.0693   Anisotropy =     6.7596

     17  C    Isotropic =   161.4352   Anisotropy =    19.9794

     18  C    Isotropic =   163.3487   Anisotropy =    17.8156

     19  C    Isotropic =   175.6213   Anisotropy =    18.5246

     20  H    Isotropic =    31.0570   Anisotropy =    10.3123

     21  H    Isotropic =    31.2429   Anisotropy =     7.6101

     22  H    Isotropic =    31.2042   Anisotropy =     8.0477

     23  H    Isotropic =    30.7092   Anisotropy =     5.5520

     24  H    Isotropic =    30.6959   Anisotropy =     6.0918

     25  H    Isotropic =    30.6068   Anisotropy =     5.5135

     26  H    Isotropic =    30.8343   Anisotropy =     5.4295

     27  H    Isotropic =    30.7272   Anisotropy =     5.9622

     28  H    Isotropic =    30.5858   Anisotropy =     7.1375

     29  H    Isotropic =    30.4734   Anisotropy =     8.9744

     30  H    Isotropic =    30.8522   Anisotropy =     7.4834

     31  H    Isotropic =    31.4955   Anisotropy =     7.6092

     32  H    Isotropic =    31.1563   Anisotropy =    10.5847

     33  H    Isotropic =    30.9575   Anisotropy =     6.0798

     34  H    Isotropic =    30.7531   Anisotropy =     5.1634

     35  H    Isotropic =    30.4727   Anisotropy =     6.8188

     36  H    Isotropic =    30.4412   Anisotropy =     9.3614

     37  H    Isotropic =    30.7347   Anisotropy =     7.4513

     38  H    Isotropic =    31.4367   Anisotropy =     7.5403

     39  H    Isotropic =    31.1170   Anisotropy =    10.4745

     40  H    Isotropic =    30.9179   Anisotropy =     5.5056

  Exact polarizability: 177.224   0.246 155.691  -0.093  -0.247 129.181
 Approx polarizability: 214.294  -0.286 212.609   1.293   1.385 195.922

                      1                      2                      3
                      A                      A                      A
 Frequencies --     26.5130                29.5867                37.4442
 Red. masses --      2.8202                 2.7579                 2.5657
 Frc consts  --      0.0012                 0.0014                 0.0021
 IR Inten    --      0.0017                 0.0057                 0.0629

                      4                      5                      6
                      A                      A                      A
 Frequencies --     47.0745                54.1188                58.1468
 Red. masses --      2.5084                 3.3001                 1.6676
 Frc consts  --      0.0033                 0.0057                 0.0033
 IR Inten    --      0.0517                 0.0280                 0.0223

                      7                      8                      9
                      A                      A                      A
 Frequencies --    105.9503               119.3858               126.0744
 Red. masses --      2.5913                 2.1710                 2.1020
 Frc consts  --      0.0171                 0.0182                 0.0197
 IR Inten    --      0.1742                 0.0088                 0.0636

                     10                     11                     12
                      A                      A                      A
 Frequencies --    141.8425               162.0395               169.1329
 Red. masses --      2.2963                 1.7411                 2.4885
 Frc consts  --      0.0272                 0.0269                 0.0419
 IR Inten    --      0.0822                 0.4740                 0.1956

                     13                     14                     15
                      A                      A                      A
 Frequencies --    202.7341               217.1546               237.1581
 Red. masses --      1.6957                 1.9430                 1.5868
 Frc consts  --      0.0411                 0.0540                 0.0526
 IR Inten    --      0.0464                 0.1250                 0.1439

                     16                     17                     18
                      A                      A                      A
 Frequencies --    252.5400               255.3425               289.2205
 Red. masses --      1.4246                 1.8602                 1.6192
 Frc consts  --      0.0535                 0.0715                 0.0798
 IR Inten    --      0.0474                 0.0414                 0.0913

                     19                     20                     21
                      A                      A                      A
 Frequencies --    300.9797               336.0674               359.2708
 Red. masses --      2.0149                 3.0579                 3.7251
 Frc consts  --      0.1075                 0.2035                 0.2833
 IR Inten    --      0.2132                 0.2944                 0.6173

                     22                     23                     24
                      A                      A                      A
 Frequencies --    419.0633               433.4901               446.9033
 Red. masses --      2.6026                 2.4432                 3.1404
 Frc consts  --      0.2693                 0.2705                 0.3695
 IR Inten    --      1.7643                 2.3869                 1.3847

                     25                     26                     27
                      A                      A                      A
 Frequencies --    668.4833               697.8295               709.8974
 Red. masses --      2.4417                 1.5696                 2.1620
 Frc consts  --      0.6429                 0.4504                 0.6419
 IR Inten    --      0.8320                 0.2231                 2.6138

                     28                     29                     30
                      A                      A                      A
 Frequencies --    738.6067               742.7726               748.3000
 Red. masses --      1.2978                 1.9393                 1.3277
 Frc consts  --      0.4172                 0.6304                 0.4380
 IR Inten    --      5.6022                19.1770                 9.7934

                     31                     32                     33
                      A                      A                      A
 Frequencies --    781.0841               793.6694               797.3338
 Red. masses --      1.2002                 1.4045                 1.3814
 Frc consts  --      0.4314                 0.5213                 0.5174
 IR Inten    --      0.5107                 4.1719                 1.2678

                     34                     35                     36
                      A                      A                      A
 Frequencies --    872.0876               876.7845               900.8518
 Red. masses --      2.3946                 2.6231                 1.5733
 Frc consts  --      1.0730                 1.1881                 0.7523
 IR Inten    --      0.2445                 0.1005                 1.1936

                     37                     38                     39
                      A                      A                      A
 Frequencies --    912.2258               917.1137               940.2250
 Red. masses --      1.4787                 1.3826                 1.3707
 Frc consts  --      0.7250                 0.6852                 0.7140
 IR Inten    --      4.8445                 5.9632                 5.6638

                     40                     41                     42
                      A                      A                      A
 Frequencies --    985.1116               985.6103              1022.0455
 Red. masses --      2.0327                 1.9763                 3.5935
 Frc consts  --      1.1622                 1.1311                 2.2116
 IR Inten    --      4.0304                 4.4597                 1.7594

                     43                     44                     45
                      A                      A                      A
 Frequencies --   1059.2467              1063.1237              1066.8182
 Red. masses --      1.3137                 1.2919                 1.9978
 Frc consts  --      0.8685                 0.8603                 1.3396
 IR Inten    --      1.6540                 3.3101                 1.3716

                     46                     47                     48
                      A                      A                      A
 Frequencies --   1074.5531              1083.9324              1096.4067
 Red. masses --      2.2732                 2.1325                 1.4652
 Frc consts  --      1.5465                 1.4762                 1.0377
 IR Inten    --      2.4690                 0.1911                 6.7025

                     49                     50                     51
                      A                      A                      A
 Frequencies --   1118.0936              1121.0342              1125.2199
 Red. masses --      1.7039                 1.7885                 1.8350
 Frc consts  --      1.2550                 1.3243                 1.3689
 IR Inten    --      2.4581                 1.3365                 7.5777

                     52                     53                     54
                      A                      A                      A
 Frequencies --   1224.7740              1231.6430              1245.1129
 Red. masses --      1.4832                 1.4675                 1.3462
 Frc consts  --      1.3109                 1.3116                 1.2297
 IR Inten    --      0.4778                 4.9317                 3.0421

                     55                     56                     57
                      A                      A                      A
 Frequencies --   1247.2447              1250.5134              1269.0027
 Red. masses --      1.4944                 1.3566                 1.3333
 Frc consts  --      1.3697                 1.2499                 1.2651
 IR Inten    --      0.6326                 5.2709                 1.8206

                     58                     59                     60
                      A                      A                      A
 Frequencies --   1316.0784              1320.9632              1322.9533
 Red. masses --      1.1950                 1.1866                 1.1965
 Frc consts  --      1.2195                 1.2199                 1.2338
 IR Inten    --      0.4955                 0.7839                 0.6985

                     61                     62                     63
                      A                      A                      A
 Frequencies --   1335.7986              1340.2606              1349.0166
 Red. masses --      1.1604                 1.1515                 1.1318
 Frc consts  --      1.2200                 1.2187                 1.2135
 IR Inten    --      3.9433                 4.3613                 0.4419

                     64                     65                     66
                      A                      A                      A
 Frequencies --   1350.9946              1390.0038              1395.2709
 Red. masses --      1.2454                 1.3943                 1.4081
 Frc consts  --      1.3393                 1.5873                 1.6151
 IR Inten    --      1.9087                 0.6536                 2.6859

                     67                     68                     69
                      A                      A                      A
 Frequencies --   1397.7614              1399.7707              1412.3477
 Red. masses --      1.3387                 1.3404                 1.5166
 Frc consts  --      1.5410                 1.5474                 1.7824
 IR Inten    --     12.3254                 6.4318                 0.8333

                     70                     71                     72
                      A                      A                      A
 Frequencies --   1440.7066              1442.1108              1442.7540
 Red. masses --      1.2420                 1.2607                 1.2592
 Frc consts  --      1.5189                 1.5447                 1.5442
 IR Inten    --      1.1953                 5.8764                 6.1498

                     73                     74                     75
                      A                      A                      A
 Frequencies --   1492.2947              1493.0802              1499.1170
 Red. masses --      1.0863                 1.0847                 1.0858
 Frc consts  --      1.4253                 1.4247                 1.4378
 IR Inten    --      3.2942                 1.2253                 3.8394

                     76                     77                     78
                      A                      A                      A
 Frequencies --   1515.6268              1516.0537              1517.0756
 Red. masses --      1.0766                 1.0700                 1.0678
 Frc consts  --      1.4571                 1.4490                 1.4480
 IR Inten    --      2.9205                 1.8400                 0.6528

                     79                     80                     81
                      A                      A                      A
 Frequencies --   1518.7016              1521.7338              1526.4854
 Red. masses --      1.0769                 1.0784                 1.0704
 Frc consts  --      1.4634                 1.4713                 1.4695
 IR Inten    --      0.4204                 1.3894                 0.3077

                     82                     83                     84
                      A                      A                      A
 Frequencies --   1529.7296              1531.3735              1533.6664
 Red. masses --      1.0410                 1.0510                 1.0582
 Frc consts  --      1.4353                 1.4521                 1.4665
 IR Inten    --      5.7859                 6.6895                 2.2896

                     85                     86                     87
                      A                      A                      A
 Frequencies --   1538.1720              1538.5869              1540.5508
 Red. masses --      1.0612                 1.0592                 1.0827
 Frc consts  --      1.4793                 1.4773                 1.5139
 IR Inten    --      2.5732                10.0970                 3.1786

                     88                     89                     90
                      A                      A                      A
 Frequencies --   3020.0663              3021.1533              3022.6682
 Red. masses --      1.0587                 1.0590                 1.0607
 Frc consts  --      5.6893                 5.6952                 5.7100
 IR Inten    --      2.3412                 0.7649                11.6401

                     91                     92                     93
                      A                      A                      A
 Frequencies --   3025.0591              3025.9909              3028.2437
 Red. masses --      1.0608                 1.0634                 1.0640
 Frc consts  --      5.7195                 5.7371                 5.7486
 IR Inten    --     28.8690                29.4862                 5.2102

                     94                     95                     96
                      A                      A                      A
 Frequencies --   3030.7254              3033.9187              3036.9540
 Red. masses --      1.0621                 1.0605                 1.0634
 Frc consts  --      5.7477                 5.7515                 5.7786
 IR Inten    --     43.9737                 7.5843                45.2268

                     97                     98                     99
                      A                      A                      A
 Frequencies --   3041.5457              3042.5644              3043.1697
 Red. masses --      1.0378                 1.0383                 1.0386
 Frc consts  --      5.6566                 5.6631                 5.6671
 IR Inten    --     47.2944                21.3077                21.7636

                    100                    101                    102
                      A                      A                      A
 Frequencies --   3045.6604              3058.2114              3058.8665
 Red. masses --      1.0970                 1.0978                 1.0996
 Frc consts  --      5.9956                 6.0492                 6.0616
 IR Inten    --      5.5728                12.1017                28.0519

                    103                    104                    105
                      A                      A                      A
 Frequencies --   3059.7779              3061.2897              3068.2112
 Red. masses --      1.0999                 1.1014                 1.0971
 Frc consts  --      6.0674                 6.0814                 6.0849
 IR Inten    --     16.5267                14.9617                 7.6721

                    106                    107                    108
                      A                      A                      A
 Frequencies --   3079.5379              3082.5639              3088.6763
 Red. masses --      1.1048                 1.1032                 1.1018
 Frc consts  --      6.1729                 6.1765                 6.1928
 IR Inten    --     62.7092                42.8172                59.3883

                    109                    110                    111
                      A                      A                      A
 Frequencies --   3105.9120              3106.6282              3106.8913
 Red. masses --      1.1013                 1.1028                 1.1012
 Frc consts  --      6.2593                 6.2709                 6.2631
 IR Inten    --     66.2383                69.9575                29.6858

                    112                    113                    114
                      A                      A                      A
 Frequencies --   3110.8637              3114.5787              3115.7308
 Red. masses --      1.1020                 1.1018                 1.1017
 Frc consts  --      6.2832                 6.2975                 6.3015
 IR Inten    --     43.5259                50.8740                48.2447

 - Thermochemistry -
 -------------------
 Temperature   298.150 Kelvin.  Pressure   1.00000 Atm.
 Atom     1 has atomic number  6 and mass  12.00000

 Molecular mass:   202.18504 amu.
 Principal axes and moments of inertia in atomic units:
                           1         2         3
     Eigenvalues --  2985.485715528.150057555.88840
           X            0.99999   0.00337   0.00178
           Y           -0.00338   0.99999   0.00262
           Z           -0.00177  -0.00263   0.99999
 This molecule is an asymmetric top.
 Rotational symmetry number  1.
 Warning -- assumption of classical behavior for rotation
           may cause significant error
 Rotational temperatures (Kelvin)      0.02901     0.01567     0.01146
 Rotational constants (GHZ):           0.60451     0.32646     0.23885
 Zero-point vibrational energy     976741.8 (Joules/Mol)
                                  233.44690 (Kcal/Mol)
 Warning -- explicit consideration of  24 degrees of freedom as
           vibrations may cause significant error
 Vibrational temperatures:     38.15    42.57    53.87    67.73    77.86
          (Kelvin)             83.66   152.44   171.77   181.39   204.08
                              233.14   243.34   291.69   312.44   341.22
                              363.35   367.38   416.12   433.04   483.53
                              516.91   602.94   623.70   642.99   961.80
                             1004.02  1021.38  1062.69  1068.68  1076.64
                             1123.81  1141.91  1147.19  1254.74  1261.50
                             1296.12  1312.49  1319.52  1352.77  1417.36
                             1418.07  1470.50  1524.02  1529.60  1534.91
                             1546.04  1559.54  1577.48  1608.69  1612.92
                             1618.94  1762.18  1772.06  1791.44  1794.51
                             1799.21  1825.81  1893.54  1900.57  1903.43
                             1921.92  1928.34  1940.93  1943.78  1999.91
                             2007.48  2011.07  2013.96  2032.05  2072.86
                             2074.88  2075.80  2147.08  2148.21  2156.90
                             2180.65  2181.26  2182.73  2185.07  2189.44
                             2196.27  2200.94  2203.30  2206.60  2213.09
                             2213.68  2216.51  4345.20  4346.77  4348.95
                             4352.39  4353.73  4356.97  4360.54  4365.13
                             4369.50  4376.11  4377.57  4378.44  4382.03
                             4400.08  4401.03  4402.34  4404.51  4414.47
                             4430.77  4435.12  4443.92  4468.71  4469.75
                             4470.12  4475.84  4481.18  4482.84

 Zero-point correction=                           0.372021 (Hartree/Particle)
 Thermal correction to Energy=                    0.390762
 Thermal correction to Enthalpy=                  0.391706
 Thermal correction to Gibbs Free Energy=         0.322570
 Sum of electronic and zero-point Energies=           -814.539813
 Sum of electronic and thermal Energies=              -814.521073
 Sum of electronic and thermal Enthalpies=            -814.520129
 Sum of electronic and thermal Free Energies=         -814.589265

                     E (Thermal)             CV                S
                      KCal/Mol        Cal/Mol-Kelvin    Cal/Mol-Kelvin
 Total                  245.207             66.346            145.509
 Electronic               0.000              0.000              0.000
 Translational            0.889              2.981             41.817
 Rotational               0.889              2.981             33.189
 Vibrational            243.429             60.384             70.503
 Vibration     1          0.593              1.984              6.075
 Vibration     2          0.593              1.984              5.857
 Vibration     3          0.594              1.982              5.390
 Vibration     4          0.595              1.979              4.937
 Vibration     5          0.596              1.976              4.661
 Vibration     6          0.596              1.974              4.519
 Vibration     7          0.605              1.944              3.342
 Vibration     8          0.609              1.933              3.110
 Vibration     9          0.611              1.927              3.005
 Vibration    10          0.615              1.911              2.779
 Vibration    11          0.622              1.889              2.526
 Vibration    12          0.625              1.880              2.445
 Vibration    13          0.639              1.836              2.108
 Vibration    14          0.646              1.815              1.983
 Vibration    15          0.656              1.784              1.824
 Vibration    16          0.664              1.758              1.713
 Vibration    17          0.666              1.754              1.693
 Vibration    18          0.686              1.694              1.479
 Vibration    19          0.693              1.672              1.411
 Vibration    20          0.717              1.603              1.231
 Vibration    21          0.734              1.556              1.125
 Vibration    22          0.782              1.429              0.895
 Vibration    23          0.794              1.397              0.847
 Vibration    24          0.806              1.368              0.805

 Optimization completed.
    -- Stationary point found.
 Normal termination of Gaussian 16 at Sun Aug 23 10:23:57 2020.
 Gaussian 16:  ES64L-G16RevA.03 25-Dec-2016

 ----------------------------------------------------------------------
 # TD(NStates=10, Root=1) B3LYP/6-31G* scf=qc volume pop=NPA density=cu
 rrent Geom=AllCheck Guess=Read
 ----------------------------------------------------------------------

 Structure from the checkpoint file:  "phosphine_2_conf53.chk"
 -------------------
 Title Card Required
 -------------------
 Charge =  0 Multiplicity = 1

                         Standard orientation:
 ---------------------------------------------------------------------
 Center     Atomic      Atomic             Coordinates (Angstroms)
 Number     Number       Type             X           Y           Z
 ---------------------------------------------------------------------
      1          6           0        5.469378    0.066191    0.495478
      2          6           0        4.137869   -0.672575    0.665596
      3          6           0        3.014781   -0.100955   -0.211666
      4          6           0        1.679177   -0.841913   -0.040677
      5          1           0        1.817623   -1.902263   -0.295353
      6          1           0        1.365842   -0.808779    1.011783
      7         15           0        0.327765   -0.189691   -1.171792
      8          6           0       -1.060733   -1.411396   -0.819795
      9          1           0       -1.910041   -1.077076   -1.428779
     10          1           0       -0.733762   -2.359076   -1.271910
     11          6           0       -1.506102   -1.658604    0.629661
     12          6           0       -2.596432   -2.737826    0.772133
     13          6           0       -3.945469   -2.367658    0.144780
     14          6           0       -0.214121    1.323625   -0.198442
     15          1           0       -0.397555    1.063301    0.851594
     16          1           0        0.642095    2.012469   -0.205935
     17          6           0       -1.433091    2.031901   -0.811271
     18          6           0       -1.784431    3.375203   -0.147032
     19          6           0       -2.245614    3.263856    1.310853
     20          1           0        6.250516   -0.364803    1.132148
     21          1           0        5.371337    1.126305    0.760216
     22          1           0        5.820274    0.016535   -0.542615
     23          1           0        3.829305   -0.635081    1.720092
     24          1           0        4.275231   -1.736852    0.426809
     25          1           0        3.320501   -0.138981   -1.266321
     26          1           0        2.883886    0.964129    0.028103
     27          1           0       -1.875918   -0.723017    1.071445
     28          1           0       -0.639935   -1.961024    1.231606
     29          1           0       -2.745828   -2.941285    1.841443
     30          1           0       -2.233190   -3.677518    0.331780
     31          1           0       -4.334336   -1.433160    0.569022
     32          1           0       -4.691319   -3.149827    0.326815
     33          1           0       -3.870419   -2.233602   -0.940134
     34          1           0       -2.310173    1.370558   -0.760073
     35          1           0       -1.243938    2.204875   -1.879269
     36          1           0       -2.577469    3.856711   -0.735304
     37          1           0       -0.913518    4.043657   -0.205864
     38          1           0       -3.118236    2.604070    1.399032
     39          1           0       -2.529859    4.244358    1.709821
     40          1           0       -1.458862    2.861655    1.959020
 ---------------------------------------------------------------------

 SCF Done:  E(RB3LYP) =  -814.911834806     a.u. after    1 cycles

 Excitation energies and oscillator strengths:

 Excited State   1:      Singlet-A      6.5951 eV  187.99 nm  f=0.1318  <S**2>=0.000
      57 -> 58         0.69365
 This state for optimization and/or second-order correction.
 Total Energy, E(TD-HF/TD-DFT) =  -814.669468533
 Copying the excited state density for this state as the 1-particle RhoCI density.

 Excited State   2:      Singlet-A      6.6929 eV  185.25 nm  f=0.1180  <S**2>=0.000
      57 -> 59         0.69090

 Excited State   3:      Singlet-A      7.0124 eV  176.81 nm  f=0.0149  <S**2>=0.000
      57 -> 60         0.69876

 Excited State   4:      Singlet-A      7.5797 eV  163.57 nm  f=0.0030  <S**2>=0.000
      57 -> 61         0.65835
      57 -> 62        -0.11109
      57 -> 63        -0.19150

 Excited State   5:      Singlet-A      7.8418 eV  158.11 nm  f=0.0342  <S**2>=0.000
      57 -> 62         0.60208
      57 -> 63        -0.29626
      57 -> 64         0.10390
      57 -> 65        -0.14244

 Excited State   6:      Singlet-A      7.9501 eV  155.95 nm  f=0.0005  <S**2>=0.000
      57 -> 61         0.21547
      57 -> 62         0.31668
      57 -> 63         0.56650
      57 -> 65         0.11158

 Excited State   7:      Singlet-A      8.1183 eV  152.72 nm  f=0.0059  <S**2>=0.000
      57 -> 63        -0.12591
      57 -> 64         0.34219
      57 -> 65         0.58307

 Excited State   8:      Singlet-A      8.1897 eV  151.39 nm  f=0.0384  <S**2>=0.000
      57 -> 64         0.48647
      57 -> 65        -0.31501
      57 -> 66        -0.35949

 Excited State   9:      Singlet-A      8.2861 eV  149.63 nm  f=0.0024  <S**2>=0.000
      55 -> 58         0.13847
      57 -> 63         0.14219
      57 -> 64         0.30793
      57 -> 65        -0.10131
      57 -> 66         0.57305

 Excited State  10:      Singlet-A      8.3569 eV  148.36 nm  f=0.0101  <S**2>=0.000
      55 -> 58         0.43981
      55 -> 59         0.14328
      56 -> 58         0.37276
      56 -> 59        -0.35042

 The electronic state is 1-A.
 Alpha  occ. eigenvalues --  -77.06298 -10.18075 -10.18030 -10.18019 -10.18011
 Alpha  occ. eigenvalues --  -10.17949 -10.17913 -10.17912 -10.17868 -10.17836
 Alpha  occ. eigenvalues --  -10.17268 -10.17222 -10.17140  -6.53077  -4.69334
 Alpha  occ. eigenvalues --   -4.69324  -4.68822  -0.80002  -0.78918  -0.78849
 Alpha  occ. eigenvalues --   -0.74171  -0.71514  -0.71224  -0.65672  -0.63635
 Alpha  occ. eigenvalues --   -0.62444  -0.57656  -0.57189  -0.56755  -0.51724
 Alpha  occ. eigenvalues --   -0.46809  -0.46141  -0.45587  -0.44600  -0.43358
 Alpha  occ. eigenvalues --   -0.42726  -0.41959  -0.41324  -0.40549  -0.39475
 Alpha  occ. eigenvalues --   -0.38284  -0.38079  -0.37107  -0.36698  -0.35561
 Alpha  occ. eigenvalues --   -0.35156  -0.34919  -0.33494  -0.33029  -0.32732
 Alpha  occ. eigenvalues --   -0.32598  -0.32538  -0.32279  -0.31863  -0.28924
 Alpha  occ. eigenvalues --   -0.28534  -0.21165
 Alpha virt. eigenvalues --    0.05795   0.06375   0.07610   0.09612   0.10748
 Alpha virt. eigenvalues --    0.10893   0.11654   0.11824   0.12139   0.13666
 Alpha virt. eigenvalues --    0.13790   0.14430   0.14885   0.15409   0.15678

 Mulliken charges:
               1
     1  C   -0.443951
     2  C   -0.239438
     3  C   -0.259229
     4  C   -0.408652
     5  H    0.150702
     6  H    0.155712
     7  P    0.332567
     8  C   -0.428599
     9  H    0.180888
    10  H    0.171002
    11  C   -0.252333
    12  C   -0.254178
    13  C   -0.443431
    14  C   -0.410461
    15  H    0.155741
    16  H    0.134527
    17  C   -0.191323
    18  C   -0.237259
    19  C   -0.416169
    20  H    0.144047
    21  H    0.142991
    22  H    0.143518
    23  H    0.128177
    24  H    0.127418
    25  H    0.129457
    26  H    0.139550
    27  H    0.121682
    28  H    0.144804
    29  H    0.146041
    30  H    0.135477
    31  H    0.147731
    32  H    0.146605
    33  H    0.146684
    34  H    0.088116
    35  H    0.090596
    36  H    0.114627
    37  H    0.114301
    38  H    0.121558
    39  H    0.117135
    40  H    0.113369
 Sum of Mulliken charges =  -0.00000

 Dipole moment (field-independent basis, Debye):
    X=              0.7102    Y=             -2.4716    Z=              0.3642  Tot=              2.5973
 Quadrupole moment (field-independent basis, Debye-Ang):
   XX=            -95.7192   YY=            -97.7872   ZZ=            -97.5290
   XY=              5.0847   XZ=              0.6979   YZ=             -0.8737

 Summary of Natural Population Analysis:

                                       Natural Population
                Natural  -----------------------------------------------
    Atom  No    Charge         Core      Valence    Rydberg      Total
 -----------------------------------------------------------------------
      C    1   -0.67517      1.99946     4.66792    0.00778     6.67517
      C    2   -0.45263      1.99935     4.44234    0.01094     6.45263
      C    3   -0.46327      1.99933     4.45168    0.01225     6.46327
      C    4   -0.81881      1.99931     4.79904    0.02046     6.81881
      H    5    0.24894      0.00000     0.74724    0.00381     0.75106
      H    6    0.24483      0.00000     0.74884    0.00633     0.75517
      P    7    1.05497      9.99767     3.83247    0.11489    13.94503
      C    8   -0.76237      1.99931     4.74843    0.01463     6.76237
      H    9    0.26216      0.00000     0.73292    0.00492     0.73784
      H   10    0.25435      0.00000     0.74346    0.00219     0.74565
      C   11   -0.45672      1.99928     4.44434    0.01310     6.45672
      C   12   -0.45049      1.99934     4.43995    0.01120     6.45049
      C   13   -0.68064      1.99946     4.67343    0.00775     6.68064
      C   14   -0.84099      1.99930     4.81588    0.02581     6.84099
      H   15    0.24136      0.00000     0.74988    0.00877     0.75864
      H   16    0.23352      0.00000     0.75975    0.00672     0.76648
      C   17   -0.46588      1.99933     4.45357    0.01298     6.46588
      C   18   -0.45307      1.99935     4.44237    0.01136     6.45307
      C   19   -0.67686      1.99946     4.66913    0.00827     6.67686
      H   20    0.23306      0.00000     0.76613    0.00080     0.76694
      H   21    0.22482      0.00000     0.77395    0.00123     0.77518
      H   22    0.22527      0.00000     0.77352    0.00121     0.77473
      H   23    0.22552      0.00000     0.77124    0.00324     0.77448
      H   24    0.22425      0.00000     0.77258    0.00317     0.77575
      H   25    0.22140      0.00000     0.77241    0.00619     0.77860
      H   26    0.22792      0.00000     0.77004    0.00204     0.77208
      H   27    0.20807      0.00000     0.77532    0.01661     0.79193
      H   28    0.23550      0.00000     0.76296    0.00154     0.76450
      H   29    0.24357      0.00000     0.75486    0.00158     0.75643
      H   30    0.22873      0.00000     0.76902    0.00225     0.77127
      H   31    0.22638      0.00000     0.77034    0.00328     0.77362
      H   32    0.23518      0.00000     0.76396    0.00086     0.76482
      H   33    0.22418      0.00000     0.77459    0.00122     0.77582
      H   34    0.19772      0.00000     0.78766    0.01462     0.80228
      H   35    0.20528      0.00000     0.78067    0.01405     0.79472
      H   36    0.22115      0.00000     0.77355    0.00530     0.77885
      H   37    0.21724      0.00000     0.77694    0.00582     0.78276
      H   38    0.21252      0.00000     0.78123    0.00625     0.78748
      H   39    0.21356      0.00000     0.78090    0.00554     0.78644
      H   40    0.20545      0.00000     0.78597    0.00858     0.79455
 =======================================================================
   * Total *    0.00000     33.98994    79.60051    0.40955   114.00000

 Normal termination of Gaussian 16 at Sun Aug 23 10:32:31 2020.
