 Gaussian 16, Revision A.03,

 ---------------------------------
 # opt=CalcAll B3LYP/6-31G* scf=qc
 ---------------------------------

 -------------------
 Title Card Required
 -------------------
 Symbolic Z-matrix:
 Charge =  0 Multiplicity = 1

 SCF Done:  E(RB3LYP) =  -814.896042329     a.u. after    7 cycles
 SCF Done:  E(RB3LYP) =  -814.909712633     a.u. after   15 cycles
 SCF Done:  E(RB3LYP) =  -814.911229688     a.u. after   11 cycles
 SCF Done:  E(RB3LYP) =  -814.911822805     a.u. after   11 cycles
 SCF Done:  E(RB3LYP) =  -814.911894992     a.u. after    9 cycles
 SCF Done:  E(RB3LYP) =  -814.911905712     a.u. after    5 cycles
 SCF Done:  E(RB3LYP) =  -814.911905926     a.u. after    2 cycles
 Optimization completed.
    -- Stationary point found.
 Normal termination of Gaussian 16 at Sun Aug 23 09:26:21 2020.

 ----------------------------------------------------------------------
 # freq B3LYP/6-31G* scf=qc volume NMR pop=NPA density=current Geom=All
 Check Guess=Read
 ----------------------------------------------------------------------

 Structure from the checkpoint file:  "phosphine_2_conf302.chk"
 -------------------
 Title Card Required
 -------------------
 Charge =  0 Multiplicity = 1

 SCF Done:  E(RB3LYP) =  -814.911905926     a.u. after    1 cycles

      1  C    Isotropic =   175.6506   Anisotropy =    18.5265

      2  C    Isotropic =   163.3625   Anisotropy =    17.8160

      3  C    Isotropic =   161.3901   Anisotropy =    19.8807

      4  C    Isotropic =   164.0790   Anisotropy =    24.1503

      5  H    Isotropic =    31.0683   Anisotropy =     6.4564

      6  H    Isotropic =    30.2520   Anisotropy =     4.4923

      7  P    Isotropic =   393.0911   Anisotropy =    25.4902

      8  C    Isotropic =   161.6406   Anisotropy =    16.6686

      9  H    Isotropic =    30.7210   Anisotropy =     4.8011

     10  H    Isotropic =    30.6634   Anisotropy =     7.2211

     11  C    Isotropic =   160.5522   Anisotropy =    19.8740

     12  C    Isotropic =   163.8545   Anisotropy =    16.8820

     13  C    Isotropic =   176.0525   Anisotropy =    18.8947

     14  C    Isotropic =   161.5224   Anisotropy =    27.9660

     15  H    Isotropic =    30.6451   Anisotropy =     6.1928

     16  H    Isotropic =    30.9001   Anisotropy =     7.0517

     17  C    Isotropic =   164.1791   Anisotropy =    21.5538

     18  C    Isotropic =   162.2208   Anisotropy =    22.9096

     19  C    Isotropic =   173.7391   Anisotropy =    23.9260

     20  H    Isotropic =    31.1202   Anisotropy =    10.4375

     21  H    Isotropic =    30.9184   Anisotropy =     5.4805

     22  H    Isotropic =    31.4458   Anisotropy =     7.5339

     23  H    Isotropic =    30.7386   Anisotropy =     7.4433

     24  H    Isotropic =    30.4447   Anisotropy =     9.4553

     25  H    Isotropic =    30.4707   Anisotropy =     6.9525

     26  H    Isotropic =    30.7580   Anisotropy =     4.6045

     27  H    Isotropic =    30.6436   Anisotropy =     6.1055

     28  H    Isotropic =    30.6580   Anisotropy =     6.4659

     29  H    Isotropic =    30.7783   Anisotropy =     6.5205

     30  H    Isotropic =    30.4593   Anisotropy =     9.1434

     31  H    Isotropic =    30.9486   Anisotropy =     6.0017

     32  H    Isotropic =    31.1510   Anisotropy =    10.2633

     33  H    Isotropic =    31.4392   Anisotropy =     8.4616

     34  H    Isotropic =    30.6580   Anisotropy =     6.4838

     35  H    Isotropic =    30.7794   Anisotropy =     5.9156

     36  H    Isotropic =    30.7801   Anisotropy =     6.5573

     37  H    Isotropic =    30.7888   Anisotropy =     6.1983

     38  H    Isotropic =    31.2262   Anisotropy =     7.6255

     39  H    Isotropic =    31.0247   Anisotropy =    10.5646

     40  H    Isotropic =    31.2169   Anisotropy =     7.3817

  Exact polarizability: 172.292  -0.308 157.204  -0.597  -1.120 131.839
 Approx polarizability: 214.938  -0.283 210.619  -2.835  -4.229 197.194

                      1                      2                      3
                      A                      A                      A
 Frequencies --     27.0124                31.8209                33.1677
 Red. masses --      2.8631                 2.6317                 2.8898
 Frc consts  --      0.0012                 0.0016                 0.0019
 IR Inten    --      0.0076                 0.0025                 0.0026

                      4                      5                      6
                      A                      A                      A
 Frequencies --     51.4265                53.0811                61.8767
 Red. masses --      2.6569                 1.8136                 2.3260
 Frc consts  --      0.0041                 0.0030                 0.0052
 IR Inten    --      0.0203                 0.0243                 0.0210

                      7                      8                      9
                      A                      A                      A
 Frequencies --    104.0144               108.9126               127.8890
 Red. masses --      2.6302                 2.6144                 1.9115
 Frc consts  --      0.0168                 0.0183                 0.0184
 IR Inten    --      0.2453                 0.0258                 0.0539

                     10                     11                     12
                      A                      A                      A
 Frequencies --    140.7133               157.5698               167.5172
 Red. masses --      2.5381                 1.7425                 1.8865
 Frc consts  --      0.0296                 0.0255                 0.0312
 IR Inten    --      0.1456                 0.2342                 0.2826

                     13                     14                     15
                      A                      A                      A
 Frequencies --    215.6564               222.2503               238.1624
 Red. masses --      1.8742                 1.7169                 1.9601
 Frc consts  --      0.0514                 0.0500                 0.0655
 IR Inten    --      0.1427                 0.0403                 0.2351

                     16                     17                     18
                      A                      A                      A
 Frequencies --    249.4339               268.4995               281.8868
 Red. masses --      1.3268                 1.8491                 1.7861
 Frc consts  --      0.0486                 0.0785                 0.0836
 IR Inten    --      0.0330                 0.1434                 0.3270

                     19                     20                     21
                      A                      A                      A
 Frequencies --    301.1714               334.6991               370.4919
 Red. masses --      1.9116                 2.9077                 4.0612
 Frc consts  --      0.1022                 0.1919                 0.3284
 IR Inten    --      0.5257                 0.4411                 0.8573

                     22                     23                     24
                      A                      A                      A
 Frequencies --    412.6893               430.1192               442.9516
 Red. masses --      2.8502                 2.4954                 2.6218
 Frc consts  --      0.2860                 0.2720                 0.3031
 IR Inten    --      0.9235                 0.9017                 2.3294

                     25                     26                     27
                      A                      A                      A
 Frequencies --    671.8723               696.4471               710.1196
 Red. masses --      2.4726                 1.6391                 2.0566
 Frc consts  --      0.6576                 0.4684                 0.6110
 IR Inten    --      0.0369                 1.1279                 2.3517

                     28                     29                     30
                      A                      A                      A
 Frequencies --    731.3289               748.4252               759.0575
 Red. masses --      1.4231                 1.4628                 1.4303
 Frc consts  --      0.4485                 0.4828                 0.4856
 IR Inten    --     19.9905                 7.6504                 4.4375

                     31                     32                     33
                      A                      A                      A
 Frequencies --    777.0082               788.3580               797.7228
 Red. masses --      1.4162                 1.2679                 1.3885
 Frc consts  --      0.5038                 0.4643                 0.5206
 IR Inten    --      4.8234                 2.7871                 1.8955

                     34                     35                     36
                      A                      A                      A
 Frequencies --    868.9797               878.1887               901.6346
 Red. masses --      2.5633                 2.3148                 1.5113
 Frc consts  --      1.1404                 1.0518                 0.7239
 IR Inten    --      0.1656                 0.7536                 2.4930

                     37                     38                     39
                      A                      A                      A
 Frequencies --    909.3201               922.6507               937.9319
 Red. masses --      1.5589                 1.3568                 1.4039
 Frc consts  --      0.7595                 0.6805                 0.7276
 IR Inten    --      2.3505                 8.0228                 5.1112

                     40                     41                     42
                      A                      A                      A
 Frequencies --    984.1188               986.5411              1021.7418
 Red. masses --      2.0357                 1.9314                 3.6158
 Frc consts  --      1.1616                 1.1075                 2.2240
 IR Inten    --      1.8332                 4.8084                 3.2090

                     43                     44                     45
                      A                      A                      A
 Frequencies --   1059.6933              1062.5215              1064.9208
 Red. masses --      1.3580                 1.7695                 1.6872
 Frc consts  --      0.8985                 1.1770                 1.1273
 IR Inten    --      1.2948                 1.2963                 0.5439

                     46                     47                     48
                      A                      A                      A
 Frequencies --   1079.5332              1085.4433              1092.3599
 Red. masses --      1.8383                 1.9549                 1.4357
 Frc consts  --      1.2622                 1.3570                 1.0094
 IR Inten    --      3.8642                 0.5552                 5.5778

                     49                     50                     51
                      A                      A                      A
 Frequencies --   1117.8674              1121.9260              1125.5660
 Red. masses --      1.7766                 1.7066                 1.9284
 Frc consts  --      1.3081                 1.2657                 1.4394
 IR Inten    --      2.7976                 4.5112                11.9691

                     52                     53                     54
                      A                      A                      A
 Frequencies --   1221.2412              1228.7608              1245.2146
 Red. masses --      1.5092                 1.4480                 1.4039
 Frc consts  --      1.3261                 1.2881                 1.2825
 IR Inten    --      2.9273                 3.0942                 2.9597

                     55                     56                     57
                      A                      A                      A
 Frequencies --   1251.8244              1253.2395              1265.4646
 Red. masses --      1.3952                 1.4028                 1.3196
 Frc consts  --      1.2881                 1.2981                 1.2450
 IR Inten    --      1.8683                 2.4491                 0.2504

                     58                     59                     60
                      A                      A                      A
 Frequencies --   1317.2009              1317.8035              1325.7082
 Red. masses --      1.1949                 1.1955                 1.1858
 Frc consts  --      1.2215                 1.2232                 1.2278
 IR Inten    --      0.3629                 0.6084                 2.0255

                     61                     62                     63
                      A                      A                      A
 Frequencies --   1337.0631              1338.2988              1350.5903
 Red. masses --      1.1564                 1.1409                 1.0676
 Frc consts  --      1.2180                 1.2040                 1.1473
 IR Inten    --      4.6145                 1.3432                 0.2138

                     64                     65                     66
                      A                      A                      A
 Frequencies --   1352.9364              1393.8966              1395.4450
 Red. masses --      1.3462                 1.4359                 1.4184
 Frc consts  --      1.4518                 1.6438                 1.6273
 IR Inten    --      3.0800                 1.2468                 2.3098

                     67                     68                     69
                      A                      A                      A
 Frequencies --   1397.4847              1399.7657              1409.2467
 Red. masses --      1.3405                 1.3220                 1.4884
 Frc consts  --      1.5425                 1.5261                 1.7416
 IR Inten    --      6.5778                11.7215                 2.4818

                     70                     71                     72
                      A                      A                      A
 Frequencies --   1440.3389              1442.1365              1442.4821
 Red. masses --      1.2419                 1.2606                 1.2620
 Frc consts  --      1.5180                 1.5446                 1.5471
 IR Inten    --      1.7251                 5.0512                 7.2426

                     73                     74                     75
                      A                      A                      A
 Frequencies --   1491.1542              1493.9539              1499.8479
 Red. masses --      1.0851                 1.0847                 1.0861
 Frc consts  --      1.4215                 1.4264                 1.4396
 IR Inten    --      5.3474                 1.0869                 4.2613

                     76                     77                     78
                      A                      A                      A
 Frequencies --   1514.5124              1516.7994              1517.3123
 Red. masses --      1.0726                 1.0707                 1.0673
 Frc consts  --      1.4496                 1.4514                 1.4477
 IR Inten    --      1.2104                 1.4179                 0.7379

                     79                     80                     81
                      A                      A                      A
 Frequencies --   1520.1517              1520.8121              1526.1338
 Red. masses --      1.0803                 1.0785                 1.0690
 Frc consts  --      1.4708                 1.4696                 1.4670
 IR Inten    --      1.8645                 0.6198                 0.3652

                     82                     83                     84
                      A                      A                      A
 Frequencies --   1529.6504              1532.4280              1532.7861
 Red. masses --      1.0412                 1.0535                 1.0549
 Frc consts  --      1.4354                 1.4576                 1.4603
 IR Inten    --      5.6989                 4.4276                 5.4603

                     85                     86                     87
                      A                      A                      A
 Frequencies --   1538.3359              1538.3466              1540.3253
 Red. masses --      1.0612                 1.0613                 1.0825
 Frc consts  --      1.4796                 1.4797                 1.5132
 IR Inten    --      6.8095                 5.0076                 2.1111

                     88                     89                     90
                      A                      A                      A
 Frequencies --   3021.8118              3022.4738              3023.7006
 Red. masses --      1.0601                 1.0604                 1.0593
 Frc consts  --      5.7034                 5.7075                 5.7061
 IR Inten    --      1.2892                11.2475                15.7248

                     91                     92                     93
                      A                      A                      A
 Frequencies --   3025.9424              3026.1242              3028.4502
 Red. masses --      1.0632                 1.0615                 1.0608
 Frc consts  --      5.7358                 5.7273                 5.7324
 IR Inten    --     32.6796                22.8776                 1.8303

                     94                     95                     96
                      A                      A                      A
 Frequencies --   3030.5624              3034.3182              3037.9120
 Red. masses --      1.0618                 1.0600                 1.0531
 Frc consts  --      5.7458                 5.7503                 5.7262
 IR Inten    --     17.7479                12.6807                41.7659

                     97                     98                     99
                      A                      A                      A
 Frequencies --   3041.9073              3042.7618              3043.8839
 Red. masses --      1.0421                 1.0388                 1.0379
 Frc consts  --      5.6816                 5.6667                 5.6660
 IR Inten    --     45.3705                42.4708                22.9596

                    100                    101                    102
                      A                      A                      A
 Frequencies --   3048.5785              3056.8018              3058.6231
 Red. masses --      1.1000                 1.0972                 1.0962
 Frc consts  --      6.0233                 6.0407                 6.0421
 IR Inten    --      1.6125                20.0171                17.1602

                    103                    104                    105
                      A                      A                      A
 Frequencies --   3059.9688              3061.8951              3062.5001
 Red. masses --      1.1016                 1.1017                 1.1018
 Frc consts  --      6.0775                 6.0852                 6.0886
 IR Inten    --     14.0454                24.3198                 5.0020

                    106                    107                    108
                      A                      A                      A
 Frequencies --   3080.7987              3083.0330              3085.7169
 Red. masses --      1.1041                 1.1034                 1.1045
 Frc consts  --      6.1745                 6.1791                 6.1960
 IR Inten    --     47.6188                82.8185                29.5659

                    109                    110                    111
                      A                      A                      A
 Frequencies --   3105.8046              3106.3438              3107.8948
 Red. masses --      1.1020                 1.1022                 1.1017
 Frc consts  --      6.2632                 6.2662                 6.2698
 IR Inten    --     68.2402                52.4224                46.0041

                    112                    113                    114
                      A                      A                      A
 Frequencies --   3110.5802              3114.2862              3114.9412
 Red. masses --      1.1018                 1.1018                 1.1018
 Frc consts  --      6.2813                 6.2959                 6.2986
 IR Inten    --     44.7601                58.2661                48.3622

 - Thermochemistry -
 -------------------
 Temperature   298.150 Kelvin.  Pressure   1.00000 Atm.
 Atom     1 has atomic number  6 and mass  12.00000

 Molecular mass:   202.18504 amu.
 Principal axes and moments of inertia in atomic units:
                           1         2         3
     Eigenvalues --  3391.638845057.609627232.06408
           X            0.99999  -0.00409   0.00043
           Y            0.00409   0.99998  -0.00382
           Z           -0.00041   0.00382   0.99999
 This molecule is an asymmetric top.
 Rotational symmetry number  1.
 Warning -- assumption of classical behavior for rotation
           may cause significant error
 Rotational temperatures (Kelvin)      0.02554     0.01713     0.01198
 Rotational constants (GHZ):           0.53211     0.35684     0.24955
 Zero-point vibrational energy     976814.3 (Joules/Mol)
                                  233.46422 (Kcal/Mol)
 Warning -- explicit consideration of  24 degrees of freedom as
           vibrations may cause significant error
 Vibrational temperatures:     38.86    45.78    47.72    73.99    76.37
          (Kelvin)             89.03   149.65   156.70   184.00   202.46
                              226.71   241.02   310.28   319.77   342.66
                              358.88   386.31   405.57   433.32   481.56
                              533.06   593.77   618.85   637.31   966.67
                             1002.03  1021.70  1052.22  1076.82  1092.11
                             1117.94  1134.27  1147.75  1250.27  1263.52
                             1297.25  1308.31  1327.49  1349.47  1415.93
                             1419.41  1470.06  1524.66  1528.73  1532.18
                             1553.21  1561.71  1571.66  1608.36  1614.20
                             1619.44  1757.09  1767.91  1791.59  1801.10
                             1803.13  1820.72  1895.16  1896.03  1907.40
                             1923.74  1925.51  1943.20  1946.57  2005.51
                             2007.73  2010.67  2013.95  2027.59  2072.33
                             2074.91  2075.41  2145.44  2149.47  2157.95
                             2179.05  2182.34  2183.07  2187.16  2188.11
                             2195.77  2200.83  2204.82  2205.34  2213.32
                             2213.34  2216.18  4347.71  4348.67  4350.43
                             4353.66  4353.92  4357.26  4360.30  4365.71
                             4370.88  4376.63  4377.86  4379.47  4386.22
                             4398.06  4400.68  4402.61  4405.38  4406.25
                             4432.58  4435.80  4439.66  4468.56  4469.34
                             4471.57  4475.43  4480.76  4481.71

 Zero-point correction=                           0.372049 (Hartree/Particle)
 Thermal correction to Energy=                    0.390778
 Thermal correction to Enthalpy=                  0.391722
 Thermal correction to Gibbs Free Energy=         0.322642
 Sum of electronic and zero-point Energies=           -814.539857
 Sum of electronic and thermal Energies=              -814.521128
 Sum of electronic and thermal Enthalpies=            -814.520184
 Sum of electronic and thermal Free Energies=         -814.589264

                     E (Thermal)             CV                S
                      KCal/Mol        Cal/Mol-Kelvin    Cal/Mol-Kelvin
 Total                  245.217             66.332            145.391
 Electronic               0.000              0.000              0.000
 Translational            0.889              2.981             41.817
 Rotational               0.889              2.981             33.183
 Vibrational            243.439             60.370             70.391
 Vibration     1          0.593              1.984              6.038
 Vibration     2          0.594              1.983              5.713
 Vibration     3          0.594              1.983              5.630
 Vibration     4          0.596              1.977              4.762
 Vibration     5          0.596              1.976              4.699
 Vibration     6          0.597              1.973              4.396
 Vibration     7          0.605              1.946              3.378
 Vibration     8          0.606              1.942              3.288
 Vibration     9          0.611              1.925              2.978
 Vibration    10          0.615              1.913              2.794
 Vibration    11          0.621              1.894              2.579
 Vibration    12          0.624              1.882              2.463
 Vibration    13          0.645              1.817              1.995
 Vibration    14          0.648              1.807              1.941
 Vibration    15          0.656              1.782              1.817
 Vibration    16          0.662              1.764              1.735
 Vibration    17          0.673              1.731              1.606
 Vibration    18          0.681              1.707              1.522
 Vibration    19          0.693              1.671              1.410
 Vibration    20          0.716              1.606              1.237
 Vibration    21          0.742              1.533              1.078
 Vibration    22          0.776              1.443              0.917
 Vibration    23          0.791              1.405              0.858
 Vibration    24          0.803              1.376              0.817

 Optimization completed.
    -- Stationary point found.
 Normal termination of Gaussian 16 at Sun Aug 23 09:33:38 2020.
 Gaussian 16:  ES64L-G16RevA.03 25-Dec-2016

 ----------------------------------------------------------------------
 # TD(NStates=10, Root=1) B3LYP/6-31G* scf=qc volume pop=NPA density=cu
 rrent Geom=AllCheck Guess=Read
 ----------------------------------------------------------------------

 Structure from the checkpoint file:  "phosphine_2_conf303.chk"
 -------------------
 Title Card Required
 -------------------
 Charge =  0 Multiplicity = 1

                         Standard orientation:
 ---------------------------------------------------------------------
 Center     Atomic      Atomic             Coordinates (Angstroms)
 Number     Number       Type             X           Y           Z
 ---------------------------------------------------------------------
      1          6           0        3.272534   -2.354240    1.471812
      2          6           0        2.771139   -2.898529    0.129092
      3          6           0        1.981119   -1.884470   -0.717499
      4          6           0        0.647547   -1.443060   -0.093171
      5          1           0        0.045468   -2.334138    0.132999
      6          1           0        0.812045   -0.926075    0.860611
      7         15           0       -0.395403   -0.389297   -1.247813
      8          6           0       -1.803908    0.071652   -0.092456
      9          1           0       -1.425596    0.341693    0.903393
     10          1           0       -2.263817    0.975733   -0.512511
     11          6           0       -2.856848   -1.042243    0.033618
     12          6           0       -4.022774   -0.705095    0.980362
     13          6           0       -4.909967    0.452704    0.508379
     14          6           0        0.568817    1.226537   -1.296610
     15          1           0        1.447676    1.037800   -1.928397
     16          1           0       -0.058380    1.920607   -1.874185
     17          6           0        1.007641    1.894684    0.014401
     18          6           0        1.764817    3.212194   -0.213988
     19          6           0        2.209855    3.884884    1.088782
     20          1           0        3.869542   -3.104729    2.002567
     21          1           0        2.445684   -2.066950    2.131080
     22          1           0        3.904927   -1.468978    1.327034
     23          1           0        2.145153   -3.785312    0.303866
     24          1           0        3.632314   -3.245308   -0.458224
     25          1           0        1.783132   -2.325843   -1.703541
     26          1           0        2.614472   -1.004027   -0.899245
     27          1           0       -2.373344   -1.960381    0.394489
     28          1           0       -3.254092   -1.279957   -0.962954
     29          1           0       -3.623458   -0.477158    1.979166
     30          1           0       -4.643858   -1.603373    1.099397
     31          1           0       -4.355621    1.396264    0.450510
     32          1           0       -5.750577    0.608737    1.194182
     33          1           0       -5.325532    0.250416   -0.486827
     34          1           0        1.650274    1.211780    0.586615
     35          1           0        0.131612    2.092818    0.646608
     36          1           0        1.126264    3.902019   -0.783882
     37          1           0        2.643120    3.019408   -0.846343
     38          1           0        1.349582    4.121419    1.727156
     39          1           0        2.746033    4.820590    0.893200
     40          1           0        2.878184    3.232294    1.664107
 ---------------------------------------------------------------------

 SCF Done:  E(RB3LYP) =  -814.911905926     a.u. after    1 cycles

 Excitation energies and oscillator strengths:

 Excited State   1:      Singlet-A      6.5914 eV  188.10 nm  f=0.1368  <S**2>=0.000
      57 -> 58         0.69302
 This state for optimization and/or second-order correction.
 Total Energy, E(TD-HF/TD-DFT) =  -814.669676412
 Copying the excited state density for this state as the 1-particle RhoCI density.

 Excited State   2:      Singlet-A      6.7067 eV  184.87 nm  f=0.1169  <S**2>=0.000
      57 -> 59         0.69007

 Excited State   3:      Singlet-A      7.0228 eV  176.54 nm  f=0.0090  <S**2>=0.000
      57 -> 60         0.69742

 Excited State   4:      Singlet-A      7.6299 eV  162.50 nm  f=0.0050  <S**2>=0.000
      57 -> 61         0.66013
      57 -> 63         0.18808

 Excited State   5:      Singlet-A      7.8079 eV  158.79 nm  f=0.0249  <S**2>=0.000
      57 -> 62         0.65406
      57 -> 64        -0.21144

 Excited State   6:      Singlet-A      7.9675 eV  155.61 nm  f=0.0011  <S**2>=0.000
      57 -> 61        -0.14000
      57 -> 63         0.61064
      57 -> 64         0.28085

 Excited State   7:      Singlet-A      8.0834 eV  153.38 nm  f=0.0033  <S**2>=0.000
      57 -> 61         0.16886
      57 -> 62         0.18789
      57 -> 63        -0.25175
      57 -> 64         0.56028
      57 -> 65        -0.19108

 Excited State   8:      Singlet-A      8.1874 eV  151.43 nm  f=0.0452  <S**2>=0.000
      57 -> 64         0.17887
      57 -> 65         0.63721
      57 -> 66         0.13649

 Excited State   9:      Singlet-A      8.2912 eV  149.54 nm  f=0.0065  <S**2>=0.000
      55 -> 58        -0.18258
      57 -> 62        -0.10033
      57 -> 63         0.10527
      57 -> 66         0.64300

 Excited State  10:      Singlet-A      8.3690 eV  148.15 nm  f=0.0034  <S**2>=0.000
      55 -> 58         0.49646
      55 -> 59         0.12949
      56 -> 58         0.25256
      56 -> 59        -0.36261
      57 -> 66         0.12024

 The electronic state is 1-A.
 Alpha  occ. eigenvalues --  -77.06298 -10.18070 -10.18049 -10.18033 -10.18001
 Alpha  occ. eigenvalues --  -10.17943 -10.17921 -10.17905 -10.17874 -10.17868
 Alpha  occ. eigenvalues --  -10.17324 -10.17228 -10.17126  -6.53078  -4.69335
 Alpha  occ. eigenvalues --   -4.69325  -4.68823  -0.80014  -0.78915  -0.78868
 Alpha  occ. eigenvalues --   -0.74186  -0.71491  -0.71265  -0.65670  -0.63322
 Alpha  occ. eigenvalues --   -0.62815  -0.57979  -0.57069  -0.56461  -0.51789
 Alpha  occ. eigenvalues --   -0.47148  -0.45775  -0.45711  -0.44154  -0.43595
 Alpha  occ. eigenvalues --   -0.42718  -0.42028  -0.41460  -0.40696  -0.39385
 Alpha  occ. eigenvalues --   -0.38643  -0.38192  -0.36833  -0.36227  -0.35829
 Alpha  occ. eigenvalues --   -0.34925  -0.34769  -0.33975  -0.33298  -0.32656
 Alpha  occ. eigenvalues --   -0.32608  -0.32372  -0.32189  -0.31855  -0.28886
 Alpha  occ. eigenvalues --   -0.28633  -0.21172
 Alpha virt. eigenvalues --    0.05777   0.06365   0.07782   0.09800   0.10537
 Alpha virt. eigenvalues --    0.11050   0.11316   0.11780   0.12048   0.13599
 Alpha virt. eigenvalues --    0.14006   0.14721   0.14781   0.15317   0.16074

 Mulliken charges:
               1
     1  C   -0.420010
     2  C   -0.241290
     3  C   -0.191050
     4  C   -0.418432
     5  H    0.141946
     6  H    0.161357
     7  P    0.330353
     8  C   -0.404666
     9  H    0.148837
    10  H    0.150105
    11  C   -0.257156
    12  C   -0.238214
    13  C   -0.437151
    14  C   -0.425828
    15  H    0.175621
    16  H    0.171215
    17  C   -0.252639
    18  C   -0.249503
    19  C   -0.444260
    20  H    0.121051
    21  H    0.116941
    22  H    0.124605
    23  H    0.116365
    24  H    0.117703
    25  H    0.095816
    26  H    0.090865
    27  H    0.134038
    28  H    0.124354
    29  H    0.125129
    30  H    0.126198
    31  H    0.134096
    32  H    0.139748
    33  H    0.138961
    34  H    0.125675
    35  H    0.146351
    36  H    0.136244
    37  H    0.139125
    38  H    0.146022
    39  H    0.150853
    40  H    0.150623
 Sum of Mulliken charges =   0.00000

 Dipole moment (field-independent basis, Debye):
    X=             -0.6470    Y=              2.0266    Z=              0.0464  Tot=              2.1279
 Quadrupole moment (field-independent basis, Debye-Ang):
   XX=           -100.0129   YY=            -94.6888   ZZ=            -97.7134
   XY=              4.9611   XZ=             -1.2857   YZ=             -0.5109

 Summary of Natural Population Analysis:

                                       Natural Population
                Natural  -----------------------------------------------
    Atom  No    Charge         Core      Valence    Rydberg      Total
 -----------------------------------------------------------------------
      C    1   -0.67689      1.99946     4.66931    0.00813     6.67689
      C    2   -0.45424      1.99935     4.44347    0.01143     6.45424
      C    3   -0.46584      1.99932     4.45328    0.01323     6.46584
      C    4   -0.83315      1.99930     4.80824    0.02562     6.83315
      H    5    0.23721      0.00000     0.75733    0.00547     0.76279
      H    6    0.24489      0.00000     0.74750    0.00760     0.75511
      P    7    1.05107      9.99767     3.83767    0.11359    13.94893
      C    8   -0.83156      1.99931     4.81072    0.02153     6.83156
      H    9    0.24131      0.00000     0.75144    0.00725     0.75869
      H   10    0.24584      0.00000     0.74963    0.00453     0.75416
      C   11   -0.46343      1.99933     4.45176    0.01235     6.46343
      C   12   -0.45301      1.99935     4.44247    0.01119     6.45301
      C   13   -0.67896      1.99946     4.67163    0.00788     6.67896
      C   14   -0.75943      1.99931     4.74573    0.01439     6.75943
      H   15    0.26275      0.00000     0.73204    0.00521     0.73725
      H   16    0.25473      0.00000     0.74311    0.00217     0.74527
      C   17   -0.45470      1.99928     4.44266    0.01275     6.45470
      C   18   -0.44973      1.99934     4.43941    0.01099     6.44973
      C   19   -0.67328      1.99945     4.66623    0.00760     6.67328
      H   20    0.21616      0.00000     0.77888    0.00496     0.78384
      H   21    0.20745      0.00000     0.78489    0.00766     0.79255
      H   22    0.21436      0.00000     0.78044    0.00520     0.78564
      H   23    0.21820      0.00000     0.77637    0.00543     0.78180
      H   24    0.22332      0.00000     0.77193    0.00474     0.77668
      H   25    0.20963      0.00000     0.77726    0.01311     0.79037
      H   26    0.20017      0.00000     0.78660    0.01323     0.79983
      H   27    0.22972      0.00000     0.76807    0.00221     0.77028
      H   28    0.21881      0.00000     0.77369    0.00750     0.78119
      H   29    0.22383      0.00000     0.77234    0.00383     0.77617
      H   30    0.22876      0.00000     0.76768    0.00356     0.77124
      H   31    0.21710      0.00000     0.77966    0.00324     0.78290
      H   32    0.23065      0.00000     0.76778    0.00156     0.76935
      H   33    0.22236      0.00000     0.77512    0.00251     0.77764
      H   34    0.21126      0.00000     0.77466    0.01408     0.78874
      H   35    0.23155      0.00000     0.76661    0.00184     0.76845
      H   36    0.22948      0.00000     0.76820    0.00232     0.77052
      H   37    0.22999      0.00000     0.76750    0.00251     0.77001
      H   38    0.22669      0.00000     0.77223    0.00109     0.77331
      H   39    0.23776      0.00000     0.76144    0.00080     0.76224
      H   40    0.22919      0.00000     0.76933    0.00148     0.77081
 =======================================================================
   * Total *   -0.00000     33.98994    79.60430    0.40576   114.00000

 Normal termination of Gaussian 16 at Sun Aug 23 09:41:53 2020.
