 Gaussian 16, Revision A.03,

 ---------------------------------
 # opt=CalcAll B3LYP/6-31G* scf=qc
 ---------------------------------

 -------------------
 Title Card Required
 -------------------
 Symbolic Z-matrix:
 Charge =  0 Multiplicity = 1

 SCF Done:  E(RB3LYP) =  -2415.07473062     a.u. after    8 cycles
 SCF Done:  E(RB3LYP) =  -2415.08483717     a.u. after   15 cycles
 SCF Done:  E(RB3LYP) =  -2415.08607377     a.u. after   15 cycles
 SCF Done:  E(RB3LYP) =  -2415.08623526     a.u. after   15 cycles
 SCF Done:  E(RB3LYP) =  -2415.08624666     a.u. after    7 cycles
 SCF Done:  E(RB3LYP) =  -2415.08624422     a.u. after    3 cycles
 SCF Done:  E(RB3LYP) =  -2415.08624715     a.u. after    2 cycles
 SCF Done:  E(RB3LYP) =  -2415.08624339     a.u. after    2 cycles
 SCF Done:  E(RB3LYP) =  -2415.08624380     a.u. after    2 cycles
 SCF Done:  E(RB3LYP) =  -2415.08624103     a.u. after    2 cycles
 SCF Done:  E(RB3LYP) =  -2415.08624324     a.u. after    2 cycles
 SCF Done:  E(RB3LYP) =  -2415.08624341     a.u. after    2 cycles
 SCF Done:  E(RB3LYP) =  -2415.08624405     a.u. after    2 cycles
 Optimization completed.
    -- Stationary point found.
 Normal termination of Gaussian 16 at Sun Aug 23 02:22:54 2020.

 ----------------------------------------------------------------------
 # freq B3LYP/6-31G* scf=qc volume NMR pop=NPA density=current Geom=All
 Check Guess=Read
 ----------------------------------------------------------------------

 Structure from the checkpoint file:  "phosphine_11_conf292.chk"
 -------------------
 Title Card Required
 -------------------
 Charge =  0 Multiplicity = 1

 SCF Done:  E(RB3LYP) =  -2415.08624405     a.u. after    1 cycles

      1  C    Isotropic =    67.5404   Anisotropy =   140.1075

      2  C    Isotropic =    61.9057   Anisotropy =   168.5839

      3  C    Isotropic =    58.7254   Anisotropy =   177.4252

      4  C    Isotropic =    60.2320   Anisotropy =   160.2980

      5  C    Isotropic =    67.5467   Anisotropy =   140.5864

      6  C    Isotropic =    51.6106   Anisotropy =   109.1288

      7  Cl   Isotropic =   721.0460   Anisotropy =   452.8287

      8  P    Isotropic =   364.8301   Anisotropy =    37.4195

      9  C    Isotropic =    58.7729   Anisotropy =   177.4367

     10  C    Isotropic =    61.8869   Anisotropy =   168.6570

     11  C    Isotropic =    67.5347   Anisotropy =   140.0947

     12  C    Isotropic =    51.5924   Anisotropy =   109.1617

     13  C    Isotropic =    67.5645   Anisotropy =   140.5992

     14  C    Isotropic =    60.2137   Anisotropy =   160.2691

     15  Cl   Isotropic =   720.9375   Anisotropy =   452.9712

     16  C    Isotropic =    58.7237   Anisotropy =   177.4644

     17  C    Isotropic =    60.2217   Anisotropy =   160.2578

     18  C    Isotropic =    67.5512   Anisotropy =   140.5653

     19  C    Isotropic =    51.6002   Anisotropy =   109.1466

     20  C    Isotropic =    67.5442   Anisotropy =   140.1132

     21  C    Isotropic =    61.8825   Anisotropy =   168.6200

     22  Cl   Isotropic =   720.9373   Anisotropy =   452.9483

     23  H    Isotropic =    25.2094   Anisotropy =     8.1411

     24  H    Isotropic =    25.5833   Anisotropy =    12.1197

     25  H    Isotropic =    24.7795   Anisotropy =     8.9775

     26  H    Isotropic =    25.0912   Anisotropy =     6.6365

     27  H    Isotropic =    25.5808   Anisotropy =    12.1115

     28  H    Isotropic =    25.2100   Anisotropy =     8.1417

     29  H    Isotropic =    25.0915   Anisotropy =     6.6327

     30  H    Isotropic =    24.7776   Anisotropy =     8.9639

     31  H    Isotropic =    24.7791   Anisotropy =     8.9655

     32  H    Isotropic =    25.0953   Anisotropy =     6.6289

     33  H    Isotropic =    25.2074   Anisotropy =     8.1422

     34  H    Isotropic =    25.5804   Anisotropy =    12.1098

  Exact polarizability: 280.590  -0.058 280.533   0.035   0.045 185.178
 Approx polarizability: 393.368  -0.139 393.332   0.081   0.100 343.301

                      1                      2                      3
                      A                      A                      A
 Frequencies --     22.1354                22.8620                29.3757
 Red. masses --      4.6778                 4.7686                 8.8301
 Frc consts  --      0.0014                 0.0015                 0.0045
 IR Inten    --      0.2773                 0.2643                 0.1867

                      4                      5                      6
                      A                      A                      A
 Frequencies --     29.5600                38.2032                40.1142
 Red. masses --      8.6097                 7.3578                 4.8406
 Frc consts  --      0.0044                 0.0063                 0.0046
 IR Inten    --      0.1980                 0.1832                 0.0450

                      7                      8                      9
                      A                      A                      A
 Frequencies --    109.2408               117.5211               117.8442
 Red. masses --      8.8630                 8.8298                 8.8321
 Frc consts  --      0.0623                 0.0719                 0.0723
 IR Inten    --      0.0249                 0.3535                 0.3480

                     10                     11                     12
                      A                      A                      A
 Frequencies --    181.0330               187.3969               187.4963
 Red. masses --     10.0367                 8.7815                 8.7920
 Frc consts  --      0.1938                 0.1817                 0.1821
 IR Inten    --      0.3329                 0.5714                 0.5727

                     13                     14                     15
                      A                      A                      A
 Frequencies --    264.0131               293.5497               293.7371
 Red. masses --      8.9744                 8.3963                 8.4107
 Frc consts  --      0.3686                 0.4263                 0.4276
 IR Inten    --      0.2158                 0.9026                 0.9117

                     16                     17                     18
                      A                      A                      A
 Frequencies --    310.8457               328.6793               328.8537
 Red. masses --      6.0437                 5.9880                 5.9786
 Frc consts  --      0.3441                 0.3811                 0.3809
 IR Inten    --      0.0034                 1.8915                 1.8771

                     19                     20                     21
                      A                      A                      A
 Frequencies --    383.9477               384.0314               414.5810
 Red. masses --      8.0292                 8.0312                 3.0442
 Frc consts  --      0.6974                 0.6978                 0.3083
 IR Inten    --     20.9808                20.9726                 0.0558

                     22                     23                     24
                      A                      A                      A
 Frequencies --    414.7173               416.6866               426.9531
 Red. masses --      3.0448                 3.2098                 6.6158
 Frc consts  --      0.3085                 0.3284                 0.7105
 IR Inten    --      0.0573                 0.1635                 2.9415

                     25                     26                     27
                      A                      A                      A
 Frequencies --    499.5567               509.3401               509.5342
 Red. masses --      5.5132                 3.6426                 3.6473
 Frc consts  --      0.8106                 0.5568                 0.5579
 IR Inten    --      6.8465                19.9108                19.9243

                     28                     29                     30
                      A                      A                      A
 Frequencies --    531.6324               548.7795               548.8172
 Red. masses --      4.5740                 7.4308                 7.4444
 Frc consts  --      0.7617                 1.3185                 1.3211
 IR Inten    --      9.8557                 5.4590                 5.4423

                     31                     32                     33
                      A                      A                      A
 Frequencies --    644.3346               644.3448               645.2833
 Red. masses --      7.1593                 7.1596                 7.1683
 Frc consts  --      1.7512                 1.7514                 1.7586
 IR Inten    --      0.0375                 0.0375                 0.0970

                     34                     35                     36
                      A                      A                      A
 Frequencies --    718.1837               718.2917               718.7439
 Red. masses --      4.5849                 4.5877                 4.6057
 Frc consts  --      1.3933                 1.3946                 1.4018
 IR Inten    --      1.6944                 1.6141                 0.3565

                     37                     38                     39
                      A                      A                      A
 Frequencies --    746.1169               751.6227               751.6735
 Red. masses --      7.2612                 7.2732                 7.2774
 Frc consts  --      2.3816                 2.4209                 2.4226
 IR Inten    --     14.6338                54.3642                54.2822

                     40                     41                     42
                      A                      A                      A
 Frequencies --    833.6703               834.1416               834.2511
 Red. masses --      1.4177                 1.4315                 1.4318
 Frc consts  --      0.5805                 0.5868                 0.5871
 IR Inten    --     23.7492                32.5425                32.8330

                     43                     44                     45
                      A                      A                      A
 Frequencies --    845.8071               845.9177               848.9737
 Red. masses --      1.2467                 1.2466                 1.2501
 Frc consts  --      0.5255                 0.5256                 0.5309
 IR Inten    --      0.6304                 0.6405                 0.3060

                     46                     47                     48
                      A                      A                      A
 Frequencies --    969.4868               969.6268               970.0041
 Red. masses --      1.2759                 1.2764                 1.2876
 Frc consts  --      0.7066                 0.7070                 0.7138
 IR Inten    --      0.1559                 0.1535                 0.2125

                     49                     50                     51
                      A                      A                      A
 Frequencies --    973.2320               973.4159               976.6765
 Red. masses --      1.3464                 1.3453                 1.3222
 Frc consts  --      0.7514                 0.7511                 0.7431
 IR Inten    --      0.0106                 0.0127                 0.4170

                     52                     53                     54
                      A                      A                      A
 Frequencies --   1027.9390              1027.9811              1029.6238
 Red. masses --      4.7575                 4.7651                 4.7021
 Frc consts  --      2.9618                 2.9668                 2.9370
 IR Inten    --     62.7315                62.6756                 5.1196

                     55                     56                     57
                      A                      A                      A
 Frequencies --   1097.7343              1097.8170              1101.5181
 Red. masses --      7.9020                 7.9392                 8.0725
 Frc consts  --      5.6102                 5.6375                 5.7709
 IR Inten    --     80.9224                81.7533                13.7253

                     58                     59                     60
                      A                      A                      A
 Frequencies --   1118.1742              1118.4413              1121.2722
 Red. masses --      2.1231                 2.1211                 2.1025
 Frc consts  --      1.5640                 1.5632                 1.5574
 IR Inten    --     33.1605                32.4177                 6.4366

                     61                     62                     63
                      A                      A                      A
 Frequencies --   1139.2413              1139.4336              1139.6396
 Red. masses --      1.4011                 1.4019                 1.4028
 Frc consts  --      1.0714                 1.0724                 1.0734
 IR Inten    --      0.3261                 1.6344                 2.1555

                     64                     65                     66
                      A                      A                      A
 Frequencies --   1219.0229              1219.5151              1220.9369
 Red. masses --      1.1568                 1.1573                 1.1519
 Frc consts  --      1.0128                 1.0140                 1.0117
 IR Inten    --      4.8382                 4.7486                 0.9793

                     67                     68                     69
                      A                      A                      A
 Frequencies --   1318.3089              1322.2489              1322.3391
 Red. masses --      6.9326                 7.5900                 7.7278
 Frc consts  --      7.0987                 7.8184                 7.9614
 IR Inten    --      1.3173                 2.6790                 2.6484

                     70                     71                     72
                      A                      A                      A
 Frequencies --   1337.2047              1337.5180              1337.9618
 Red. masses --      1.3360                 1.3407                 1.3396
 Frc consts  --      1.4075                 1.4132                 1.4129
 IR Inten    --      0.3836                 0.8136                 1.0869

                     73                     74                     75
                      A                      A                      A
 Frequencies --   1429.5805              1429.9510              1430.1059
 Red. masses --      2.6346                 2.6442                 2.6374
 Frc consts  --      3.1724                 3.1856                 3.1781
 IR Inten    --     19.3016                 6.1120                 6.4910

                     76                     77                     78
                      A                      A                      A
 Frequencies --   1527.0799              1527.1490              1527.2711
 Red. masses --      2.0788                 2.0898                 2.0788
 Frc consts  --      2.8562                 2.8716                 2.8569
 IR Inten    --     61.4717                28.0761                52.5162

                     79                     80                     81
                      A                      A                      A
 Frequencies --   1611.0314              1611.2541              1611.3229
 Red. masses --      6.6415                 6.6649                 6.6555
 Frc consts  --     10.1560                10.1947                10.1812
 IR Inten    --      3.8479                 3.8509                 3.8082

                     82                     83                     84
                      A                      A                      A
 Frequencies --   1633.4275              1633.4750              1634.5096
 Red. masses --      5.4308                 5.4241                 5.4913
 Frc consts  --      8.5371                 8.5271                 8.6437
 IR Inten    --     29.7479                29.7102                13.1337

                     85                     86                     87
                      A                      A                      A
 Frequencies --   3188.0079              3188.1532              3188.1994
 Red. masses --      1.0892                 1.0892                 1.0892
 Frc consts  --      6.5225                 6.5230                 6.5230
 IR Inten    --      5.1121                 4.7749                 2.7922

                     88                     89                     90
                      A                      A                      A
 Frequencies --   3205.5093              3205.5796              3206.1755
 Red. masses --      1.0879                 1.0879                 1.0879
 Frc consts  --      6.5860                 6.5863                 6.5892
 IR Inten    --      0.8545                 0.8605                 0.6832

                     91                     92                     93
                      A                      A                      A
 Frequencies --   3222.5718              3222.6063              3222.7331
 Red. masses --      1.0938                 1.0937                 1.0937
 Frc consts  --      6.6924                 6.6923                 6.6925
 IR Inten    --      2.3807                 2.2282                 9.9313

                     94                     95                     96
                      A                      A                      A
 Frequencies --   3223.6473              3223.6857              3223.9160
 Red. masses --      1.0939                 1.0939                 1.0941
 Frc consts  --      6.6978                 6.6977                 6.7000
 IR Inten    --      5.7725                 5.5814                 0.0831

 - Thermochemistry -
 -------------------
 Temperature   298.150 Kelvin.  Pressure   1.00000 Atm.
 Atom     1 has atomic number  6 and mass  12.00000

 Molecular mass:   363.97422 amu.
 Principal axes and moments of inertia in atomic units:
                           1         2         3
     Eigenvalues --  ******************************
           X            0.99980  -0.02018   0.00001
           Y            0.02018   0.99980   0.00001
           Z           -0.00001  -0.00001   1.00000
 This molecule is an asymmetric top.
 Rotational symmetry number  1.
 Warning -- assumption of classical behavior for rotation
           may cause significant error
 Rotational temperatures (Kelvin)      0.00723     0.00723     0.00405
 Rotational constants (GHZ):           0.15066     0.15058     0.08441
 Zero-point vibrational energy     643744.4 (Joules/Mol)
                                  153.85859 (Kcal/Mol)
 Warning -- explicit consideration of  30 degrees of freedom as
           vibrations may cause significant error
 Vibrational temperatures:     31.85    32.89    42.27    42.53    54.97
          (Kelvin)             57.72   157.17   169.09   169.55   260.47
                              269.62   269.77   379.86   422.35   422.62
                              447.24   472.90   473.15   552.42   552.54
                              596.49   596.69   599.52   614.29   718.75
                              732.83   733.11   764.90   789.57   789.63
                              927.05   927.07   928.42  1033.31  1033.46
                             1034.11  1073.50  1081.42  1081.49  1199.47
                             1200.14  1200.30  1216.93  1217.09  1221.48
                             1394.88  1395.08  1395.62  1400.26  1400.53
                             1405.22  1478.97  1479.04  1481.40  1579.39
                             1579.51  1584.84  1608.80  1609.19  1613.26
                             1639.11  1639.39  1639.69  1753.90  1754.61
                             1756.66  1896.75  1902.42  1902.55  1923.94
                             1924.39  1925.03  2056.85  2057.38  2057.60
                             2197.13  2197.23  2197.40  2317.91  2318.24
                             2318.33  2350.14  2350.21  2351.69  4586.83
                             4587.04  4587.11  4612.01  4612.11  4612.97
                             4636.56  4636.61  4636.79  4638.11  4638.16
                             4638.50

 Zero-point correction=                           0.245189 (Hartree/Particle)
 Thermal correction to Energy=                    0.264841
 Thermal correction to Enthalpy=                  0.265785
 Thermal correction to Gibbs Free Energy=         0.192272
 Sum of electronic and zero-point Energies=          -2414.841055
 Sum of electronic and thermal Energies=             -2414.821403
 Sum of electronic and thermal Enthalpies=           -2414.820459
 Sum of electronic and thermal Free Energies=        -2414.893972

                     E (Thermal)             CV                S
                      KCal/Mol        Cal/Mol-Kelvin    Cal/Mol-Kelvin
 Total                  166.190             74.124            154.722
 Electronic               0.000              0.000              0.000
 Translational            0.889              2.981             43.569
 Rotational               0.889              2.981             36.372
 Vibrational            164.413             68.163             74.781
 Vibration     1          0.593              1.985              6.433
 Vibration     2          0.593              1.985              6.369
 Vibration     3          0.593              1.984              5.871
 Vibration     4          0.593              1.984              5.859
 Vibration     5          0.594              1.982              5.350
 Vibration     6          0.594              1.981              5.253
 Vibration     7          0.606              1.942              3.282
 Vibration     8          0.608              1.935              3.141
 Vibration     9          0.608              1.935              3.135
 Vibration    10          0.630              1.866              2.318
 Vibration    11          0.632              1.857              2.253
 Vibration    12          0.632              1.857              2.252
 Vibration    13          0.671              1.739              1.635
 Vibration    14          0.688              1.686              1.453
 Vibration    15          0.689              1.685              1.452
 Vibration    16          0.700              1.653              1.358
 Vibration    17          0.712              1.618              1.267
 Vibration    18          0.712              1.618              1.266
 Vibration    19          0.753              1.504              1.024
 Vibration    20          0.753              1.504              1.023
 Vibration    21          0.778              1.439              0.911
 Vibration    22          0.778              1.438              0.910
 Vibration    23          0.780              1.434              0.903
 Vibration    24          0.789              1.412              0.869
 Vibration    25          0.855              1.251              0.659
 Vibration    26          0.864              1.229              0.635
 Vibration    27          0.865              1.229              0.635
 Vibration    28          0.887              1.180              0.584
 Vibration    29          0.904              1.142              0.547
 Vibration    30          0.904              1.142              0.547

                           ! Non-Optimized Parameters !
 Normal termination of Gaussian 16 at Sun Aug 23 02:38:01 2020.
 Gaussian 16:  ES64L-G16RevA.03 25-Dec-2016

 ----------------------------------------------------------------------
 # TD(NStates=10, Root=1) B3LYP/6-31G* scf=qc volume pop=NPA density=cu
 rrent Geom=AllCheck Guess=Read
 ----------------------------------------------------------------------

 Structure from the checkpoint file:  "phosphine_11_conf293.chk"
 -------------------
 Title Card Required
 -------------------
 Charge =  0 Multiplicity = 1

                         Standard orientation:
 ---------------------------------------------------------------------
 Center     Atomic      Atomic             Coordinates (Angstroms)
 Number     Number       Type             X           Y           Z
 ---------------------------------------------------------------------
      1          6           0       -2.403394   -2.347695   -0.944512
      2          6           0       -1.296648   -1.680069   -0.417931
      3          6           0       -1.406000   -0.899608    0.742668
      4          6           0       -2.659517   -0.814063    1.371327
      5          6           0       -3.777098   -1.464739    0.851798
      6          6           0       -3.636642   -2.229958   -0.305734
      7         17           0       -5.035107   -3.066587   -0.963791
      8         15           0       -0.000002   -0.000565    1.547794
      9          6           0        1.481848   -0.768087    0.742618
     10          6           0        2.100198   -0.285188   -0.420369
     11          6           0        3.232090   -0.909076   -0.947059
     12          6           0        3.750065   -2.033125   -0.305906
     13          6           0        3.160474   -2.535338    0.853960
     14          6           0        2.037683   -1.893620    1.373480
     15         17           0        5.174418   -2.824800   -0.964060
     16          6           0       -0.076064    1.666680    0.742898
     17          6           0        0.621460    2.710491    1.373511
     18          6           0        0.616426    4.003645    0.853833
     19          6           0       -0.113392    4.263419   -0.305917
     20          6           0       -0.828645    3.253176   -0.946761
     21          6           0       -0.803580    1.961020   -0.419931
     22         17           0       -0.139013    5.892728   -0.964270
     23          1           0       -2.310464   -2.951687   -1.841103
     24          1           0       -0.338841   -1.776618   -0.919883
     25          1           0       -2.766026   -0.233873    2.284777
     26          1           0       -4.741863   -1.389925    1.342266
     27          1           0        1.702330    0.590385   -0.924120
     28          1           0        3.706483   -0.528211   -1.845507
     29          1           0        3.580596   -3.406038    1.346211
     30          1           0        1.590641   -2.274233    2.288704
     31          1           0        1.174708    2.513454    2.288628
     32          1           0        1.160979    4.802597    1.345833
     33          1           0       -1.395759    3.473794   -1.845108
     34          1           0       -1.363406    1.178844   -0.923395
 ---------------------------------------------------------------------

 SCF Done:  E(RB3LYP) =  -2415.08624405     a.u. after    1 cycles

 Excitation energies and oscillator strengths:

 Excited State   1:      Singlet-A      4.4055 eV  281.43 nm  f=0.1829  <S**2>=0.000
      93 -> 94         0.69569
 This state for optimization and/or second-order correction.
 Total Energy, E(TD-HF/TD-DFT) =  -2414.92434338
 Copying the excited state density for this state as the 1-particle RhoCI density.

 Excited State   2:      Singlet-A      4.4073 eV  281.32 nm  f=0.1839  <S**2>=0.000
      93 -> 95         0.69567

 Excited State   3:      Singlet-A      4.6122 eV  268.82 nm  f=0.0036  <S**2>=0.000
      89 -> 94         0.10977
      90 -> 95         0.11010
      93 -> 96         0.67969

 Excited State   4:      Singlet-A      4.9176 eV  252.12 nm  f=0.0001  <S**2>=0.000
      88 -> 94        -0.11505
      89 -> 95         0.10937
      89 -> 97        -0.10032
      90 -> 94         0.10923
      93 -> 98         0.64521

 Excited State   5:      Singlet-A      4.9183 eV  252.09 nm  f=0.0001  <S**2>=0.000
      88 -> 95         0.11485
      89 -> 94        -0.10959
      90 -> 95         0.10991
      90 -> 97         0.10091
      93 -> 99         0.64486

 Excited State   6:      Singlet-A      5.0224 eV  246.86 nm  f=0.0089  <S**2>=0.000
      91 -> 94        -0.11414
      92 -> 95        -0.11442
      93 -> 97         0.66875

 Excited State   7:      Singlet-A      5.2595 eV  235.74 nm  f=0.0017  <S**2>=0.000
      89 -> 94        -0.13226
      90 -> 95        -0.12994
      91 -> 94        -0.25589
      91 -> 95        -0.36185
      91 -> 98         0.12547
      92 -> 94         0.36557
      92 -> 95        -0.25502
      92 -> 99        -0.12374
      93 -> 96         0.10401

 Excited State   8:      Singlet-A      5.3613 eV  231.26 nm  f=0.0051  <S**2>=0.000
      87 -> 94        -0.10177
      88 -> 94         0.19038
      89 -> 94        -0.12475
      89 -> 95        -0.14710
      89 -> 97         0.11225
      90 -> 94        -0.14758
      90 -> 95         0.12400
      91 -> 95        -0.14577
      91 -> 96         0.38469
      91 -> 99        -0.15150
      92 -> 94        -0.14772
      92 -> 96         0.21740
      92 -> 98         0.15340
      93 -> 98         0.22787

 Excited State   9:      Singlet-A      5.3619 eV  231.23 nm  f=0.0050  <S**2>=0.000
      87 -> 95        -0.10095
      88 -> 95         0.18882
      89 -> 94        -0.14745
      89 -> 95         0.12416
      90 -> 94         0.12408
      90 -> 95         0.14714
      90 -> 97         0.11227
      91 -> 94        -0.14553
      91 -> 96        -0.21617
      91 -> 98         0.15197
      92 -> 95         0.14799
      92 -> 96         0.38658
      92 -> 99         0.15203
      93 -> 99        -0.22854

 Excited State  10:      Singlet-A      5.4211 eV  228.71 nm  f=0.1611  <S**2>=0.000
      91 -> 94         0.44875
      91 -> 95         0.12128
      92 -> 94         0.11998
      92 -> 95        -0.44739
      92 -> 96         0.13736

 The electronic state is 1-A.
 Alpha  occ. eigenvalues -- -101.55493-101.55492-101.55491 -77.10094 -10.26330
 Alpha  occ. eigenvalues --  -10.26329 -10.26326 -10.21418 -10.21417 -10.21417
 Alpha  occ. eigenvalues --  -10.21368 -10.21367 -10.21366 -10.21347 -10.21346
 Alpha  occ. eigenvalues --  -10.21344 -10.21313 -10.21312 -10.21311 -10.21249
 Alpha  occ. eigenvalues --  -10.21248 -10.21246  -9.47125  -9.47124  -9.47123
 Alpha  occ. eigenvalues --   -7.23520  -7.23519  -7.23518  -7.22555  -7.22554
 Alpha  occ. eigenvalues --   -7.22553  -7.22518  -7.22517  -7.22516  -6.56809
 Alpha  occ. eigenvalues --   -4.73069  -4.73069  -4.72564  -0.89964  -0.89791
 Alpha  occ. eigenvalues --   -0.89790  -0.85153  -0.84237  -0.84236  -0.76898
 Alpha  occ. eigenvalues --   -0.76780  -0.76779  -0.76742  -0.73906  -0.73905
 Alpha  occ. eigenvalues --   -0.65058  -0.63151  -0.62986  -0.62986  -0.60497
 Alpha  occ. eigenvalues --   -0.60496  -0.57615  -0.52431  -0.52430  -0.49747
 Alpha  occ. eigenvalues --   -0.48088  -0.47998  -0.47998  -0.47167  -0.47166
 Alpha  occ. eigenvalues --   -0.46321  -0.44340  -0.44246  -0.44245  -0.42725
 Alpha  occ. eigenvalues --   -0.42724  -0.40319  -0.40238  -0.40237  -0.39580
 Alpha  occ. eigenvalues --   -0.37219  -0.37218  -0.37129  -0.35190  -0.35187
 Alpha  occ. eigenvalues --   -0.34134  -0.33461  -0.33458  -0.31867  -0.31862
 Alpha  occ. eigenvalues --   -0.31861  -0.27683  -0.27413  -0.27143  -0.27141
 Alpha  occ. eigenvalues --   -0.25830  -0.25826  -0.22678
 Alpha virt. eigenvalues --   -0.03959  -0.03954  -0.03032  -0.01964  -0.01788
 Alpha virt. eigenvalues --   -0.01784   0.02242   0.02244   0.02402   0.05589
 Alpha virt. eigenvalues --    0.05596   0.10344   0.12153   0.12345   0.12346

 Mulliken charges:
               1
     1  C   -0.118340
     2  C   -0.147266
     3  C   -0.084474
     4  C   -0.160517
     5  C   -0.114285
     6  C   -0.065235
     7  Cl   0.013927
     8  P    0.446547
     9  C   -0.130995
    10  C   -0.168351
    11  C   -0.120935
    12  C   -0.100475
    13  C   -0.120573
    14  C   -0.173953
    15  Cl  -0.043405
    16  C   -0.100258
    17  C   -0.154749
    18  C   -0.124809
    19  C   -0.085232
    20  C   -0.113062
    21  C   -0.168584
    22  Cl  -0.019763
    23  H    0.173406
    24  H    0.186007
    25  H    0.159216
    26  H    0.169179
    27  H    0.143662
    28  H    0.147952
    29  H    0.144097
    30  H    0.127297
    31  H    0.146260
    32  H    0.155864
    33  H    0.157692
    34  H    0.144152
 Sum of Mulliken charges =  -0.00000

 Dipole moment (field-independent basis, Debye):
    X=             -4.1600    Y=             -0.5576    Z=              1.9740  Tot=              4.6383
 Quadrupole moment (field-independent basis, Debye-Ang):
   XX=           -167.1764   YY=           -167.9335   ZZ=           -145.0313
   XY=              8.9494   XZ=              0.6457   YZ=              0.8159

 Summary of Natural Population Analysis:

                                       Natural Population
                Natural  -----------------------------------------------
    Atom  No    Charge         Core      Valence    Rydberg      Total
 -----------------------------------------------------------------------
      C    1   -0.24393      1.99892     4.22961    0.01540     6.24393
      C    2   -0.19138      1.99900     4.17639    0.01599     6.19138
      C    3   -0.38544      1.99891     4.36124    0.02529     6.38544
      C    4   -0.19811      1.99902     4.18382    0.01527     6.19811
      C    5   -0.24302      1.99893     4.22883    0.01527     6.24302
      C    6   -0.01866      1.99855     3.99783    0.02228     6.01866
     Cl    7    0.02685      9.99967     6.95413    0.01935    16.97315
      P    8    1.21202      9.99758     3.74056    0.04985    13.78798
      C    9   -0.48365      1.99887     4.45890    0.02588     6.48365
      C   10   -0.23700      1.99899     4.22047    0.01754     6.23700
      C   11   -0.24857      1.99893     4.23361    0.01603     6.24857
      C   12   -0.09099      1.99854     4.07022    0.02223     6.09099
      C   13   -0.25486      1.99894     4.23972    0.01620     6.25486
      C   14   -0.22546      1.99901     4.21026    0.01619     6.22546
     Cl   15   -0.01621      9.99967     6.99605    0.02049    17.01621
      C   16   -0.42584      1.99888     4.40292    0.02404     6.42584
      C   17   -0.19303      1.99901     4.17856    0.01546     6.19303
      C   18   -0.26248      1.99893     4.24713    0.01641     6.26248
      C   19   -0.05997      1.99854     4.03919    0.02223     6.05997
      C   20   -0.23457      1.99893     4.22031    0.01534     6.23457
      C   21   -0.24082      1.99899     4.22463    0.01720     6.24082
     Cl   22    0.00128      9.99967     6.97903    0.02002    16.99872
      H   23    0.26327      0.00000     0.73568    0.00105     0.73673
      H   24    0.26765      0.00000     0.73114    0.00121     0.73235
      H   25    0.24859      0.00000     0.75027    0.00114     0.75141
      H   26    0.26057      0.00000     0.73836    0.00107     0.73943
      H   27    0.24369      0.00000     0.75479    0.00152     0.75631
      H   28    0.25138      0.00000     0.74757    0.00105     0.74862
      H   29    0.24890      0.00000     0.75003    0.00107     0.75110
      H   30    0.23174      0.00000     0.76736    0.00091     0.76826
      H   31    0.24290      0.00000     0.75595    0.00115     0.75710
      H   32    0.25503      0.00000     0.74394    0.00103     0.74497
      H   33    0.25570      0.00000     0.74324    0.00106     0.74430
      H   34    0.24442      0.00000     0.75427    0.00130     0.75558
 =======================================================================
   * Total *   -0.00000     75.97648   109.56602    0.45750   186.00000

 Normal termination of Gaussian 16 at Sun Aug 23 02:55:50 2020.
