 Gaussian 16, Revision A.03,

 ---------------------------------
 # opt=CalcAll B3LYP/6-31G* scf=qc
 ---------------------------------

 -------------------
 Title Card Required
 -------------------
 Symbolic Z-matrix:
 Charge =  0 Multiplicity = 1

 SCF Done:  E(RB3LYP) =  -814.825954793     a.u. after    7 cycles
 SCF Done:  E(RB3LYP) =  -814.857198733     a.u. after   15 cycles
 SCF Done:  E(RB3LYP) =  -814.887841715     a.u. after   15 cycles
 SCF Done:  E(RB3LYP) =  -814.898299592     a.u. after   15 cycles
 SCF Done:  E(RB3LYP) =  -814.903441659     a.u. after   11 cycles
 SCF Done:  E(RB3LYP) =  -814.905246155     a.u. after   11 cycles
 SCF Done:  E(RB3LYP) =  -814.905598255     a.u. after   11 cycles
 SCF Done:  E(RB3LYP) =  -814.905661414     a.u. after    9 cycles
 SCF Done:  E(RB3LYP) =  -814.905690072     a.u. after    9 cycles
 SCF Done:  E(RB3LYP) =  -814.905730669     a.u. after   13 cycles
 SCF Done:  E(RB3LYP) =  -814.905877932     a.u. after   11 cycles
 SCF Done:  E(RB3LYP) =  -814.905920840     a.u. after    9 cycles
 SCF Done:  E(RB3LYP) =  -814.905889122     a.u. after    9 cycles
 SCF Done:  E(RB3LYP) =  -814.905916976     a.u. after   11 cycles
 SCF Done:  E(RB3LYP) =  -814.905920225     a.u. after    7 cycles
 SCF Done:  E(RB3LYP) =  -814.905921887     a.u. after    5 cycles
 SCF Done:  E(RB3LYP) =  -814.905921433     a.u. after    4 cycles
 SCF Done:  E(RB3LYP) =  -814.905921948     a.u. after    3 cycles
 Optimization completed.
    -- Stationary point found.
 Normal termination of Gaussian 16 at Sun Aug 23 08:29:23 2020.

 ----------------------------------------------------------------------
 # freq B3LYP/6-31G* scf=qc volume NMR pop=NPA density=current Geom=All
 Check Guess=Read
 ----------------------------------------------------------------------

 Structure from the checkpoint file:  "phosphine_2_conf142.chk"
 -------------------
 Title Card Required
 -------------------
 Charge =  0 Multiplicity = 1

 SCF Done:  E(RB3LYP) =  -814.905921948     a.u. after    1 cycles

      1  C    Isotropic =   173.8098   Anisotropy =    12.7666

      2  C    Isotropic =   162.0057   Anisotropy =    19.0533

      3  C    Isotropic =   162.9892   Anisotropy =    13.7309

      4  C    Isotropic =   157.1978   Anisotropy =    23.0175

      5  H    Isotropic =    30.6040   Anisotropy =     5.6632

      6  H    Isotropic =    31.0549   Anisotropy =     5.9670

      7  P    Isotropic =   399.1004   Anisotropy =    53.3761

      8  C    Isotropic =   159.1378   Anisotropy =    30.8324

      9  H    Isotropic =    30.3841   Anisotropy =     4.6045

     10  H    Isotropic =    30.9849   Anisotropy =     5.8756

     11  C    Isotropic =   159.6737   Anisotropy =    12.7661

     12  C    Isotropic =   167.8770   Anisotropy =    12.2148

     13  C    Isotropic =   176.3551   Anisotropy =    18.6630

     14  C    Isotropic =   153.7617   Anisotropy =    30.2287

     15  H    Isotropic =    30.6455   Anisotropy =     5.9928

     16  H    Isotropic =    30.9902   Anisotropy =     6.2705

     17  C    Isotropic =   159.9457   Anisotropy =    22.9618

     18  C    Isotropic =   163.0680   Anisotropy =    18.5430

     19  C    Isotropic =   175.7715   Anisotropy =    18.5413

     20  H    Isotropic =    31.1961   Anisotropy =    10.3242

     21  H    Isotropic =    30.5262   Anisotropy =     5.7487

     22  H    Isotropic =    31.3881   Anisotropy =     6.8053

     23  H    Isotropic =    30.7091   Anisotropy =     7.7179

     24  H    Isotropic =    30.5015   Anisotropy =     9.5564

     25  H    Isotropic =    30.4215   Anisotropy =     9.2828

     26  H    Isotropic =    30.8415   Anisotropy =     4.9462

     27  H    Isotropic =    30.4303   Anisotropy =     7.3766

     28  H    Isotropic =    30.5505   Anisotropy =     8.6918

     29  H    Isotropic =    30.0998   Anisotropy =     5.2682

     30  H    Isotropic =    30.7863   Anisotropy =     9.4304

     31  H    Isotropic =    30.9225   Anisotropy =     6.2153

     32  H    Isotropic =    31.1499   Anisotropy =    10.0248

     33  H    Isotropic =    31.5375   Anisotropy =     9.2575

     34  H    Isotropic =    30.6904   Anisotropy =     5.7256

     35  H    Isotropic =    30.3973   Anisotropy =     5.6073

     36  H    Isotropic =    30.4710   Anisotropy =     9.0621

     37  H    Isotropic =    30.8052   Anisotropy =     7.2334

     38  H    Isotropic =    31.4742   Anisotropy =     7.7177

     39  H    Isotropic =    31.1544   Anisotropy =    10.4828

     40  H    Isotropic =    30.9743   Anisotropy =     5.9127

  Exact polarizability: 173.928   1.598 155.012  -1.656  -0.433 130.051
 Approx polarizability: 213.036   1.253 214.081  -4.433   2.125 196.451

                      1                      2                      3
                      A                      A                      A
 Frequencies --     18.1251                23.7416                34.7029
 Red. masses --      2.9895                 2.7459                 2.4428
 Frc consts  --      0.0006                 0.0009                 0.0017
 IR Inten    --      0.0062                 0.0050                 0.0065

                      4                      5                      6
                      A                      A                      A
 Frequencies --     46.4115                48.3067                75.1197
 Red. masses --      2.7508                 2.8300                 2.7276
 Frc consts  --      0.0035                 0.0039                 0.0091
 IR Inten    --      0.0435                 0.0534                 0.0388

                      7                      8                      9
                      A                      A                      A
 Frequencies --     85.2330               102.9696               133.0641
 Red. masses --      2.8057                 2.3687                 1.8263
 Frc consts  --      0.0120                 0.0148                 0.0191
 IR Inten    --      0.2399                 0.0470                 0.2558

                     10                     11                     12
                      A                      A                      A
 Frequencies --    142.4038               166.2964               199.1771
 Red. masses --      1.6994                 2.6299                 1.9094
 Frc consts  --      0.0203                 0.0429                 0.0446
 IR Inten    --      0.3687                 0.2429                 0.1024

                     13                     14                     15
                      A                      A                      A
 Frequencies --    227.7388               232.8395               242.3426
 Red. masses --      1.4586                 1.4768                 2.2848
 Frc consts  --      0.0446                 0.0472                 0.0791
 IR Inten    --      0.3245                 0.0312                 0.1216

                     16                     17                     18
                      A                      A                      A
 Frequencies --    261.7394               278.5362               302.2327
 Red. masses --      1.9457                 1.8248                 1.7534
 Frc consts  --      0.0785                 0.0834                 0.0944
 IR Inten    --      0.3156                 0.2327                 0.3252

                     19                     20                     21
                      A                      A                      A
 Frequencies --    319.1234               327.0631               372.1828
 Red. masses --      2.0153                 2.3695                 2.0476
 Frc consts  --      0.1209                 0.1493                 0.1671
 IR Inten    --      0.3584                 0.3048                 0.1574

                     22                     23                     24
                      A                      A                      A
 Frequencies --    434.7349               456.3115               456.9493
 Red. masses --      2.2444                 1.8795                 2.2093
 Frc consts  --      0.2499                 0.2306                 0.2718
 IR Inten    --      1.8055                 1.3001                 0.9325

                     25                     26                     27
                      A                      A                      A
 Frequencies --    616.2683               648.7372               716.6992
 Red. masses --      3.0750                 4.1470                 2.1725
 Frc consts  --      0.6881                 1.0283                 0.6575
 IR Inten    --      5.8115                 8.9384                 9.6098

                     28                     29                     30
                      A                      A                      A
 Frequencies --    733.7998               758.5593               780.1713
 Red. masses --      1.3801                 1.3915                 1.2414
 Frc consts  --      0.4378                 0.4718                 0.4452
 IR Inten    --      4.5382                 3.3109                 1.7220

                     31                     32                     33
                      A                      A                      A
 Frequencies --    785.6837               792.5037               803.1691
 Red. masses --      1.5661                 1.6497                 1.8681
 Frc consts  --      0.5696                 0.6104                 0.7100
 IR Inten    --      3.7694                 3.5758                 4.5682

                     34                     35                     36
                      A                      A                      A
 Frequencies --    867.0822               880.0701               883.6295
 Red. masses --      2.1985                 1.8190                 1.9081
 Frc consts  --      0.9739                 0.8301                 0.8778
 IR Inten    --      1.8061                 2.2347                 2.6267

                     37                     38                     39
                      A                      A                      A
 Frequencies --    898.9030               911.4252               938.6918
 Red. masses --      1.3956                 1.4242                 1.4794
 Frc consts  --      0.6644                 0.6971                 0.7680
 IR Inten    --      0.5663                 3.7134                 5.3744

                     40                     41                     42
                      A                      A                      A
 Frequencies --    981.5292               986.3291               992.5989
 Red. masses --      2.1688                 1.8283                 2.0548
 Frc consts  --      1.2310                 1.0480                 1.1928
 IR Inten    --      6.5590                 3.3956                 0.5551

                     43                     44                     45
                      A                      A                      A
 Frequencies --   1055.2294              1075.0308              1079.8714
 Red. masses --      1.4807                 1.9700                 1.5279
 Frc consts  --      0.9714                 1.3414                 1.0498
 IR Inten    --      1.5065                 3.7854                 1.0682

                     46                     47                     48
                      A                      A                      A
 Frequencies --   1087.1071              1094.0400              1099.7356
 Red. masses --      1.7043                 1.7656                 1.3707
 Frc consts  --      1.1867                 1.2451                 0.9767
 IR Inten    --      1.0552                 6.0047                 3.3117

                     49                     50                     51
                      A                      A                      A
 Frequencies --   1109.9273              1121.4485              1122.4503
 Red. masses --      1.5845                 1.7520                 1.7972
 Frc consts  --      1.1501                 1.2982                 1.3341
 IR Inten    --      1.6021                 2.1863                 1.3105

                     52                     53                     54
                      A                      A                      A
 Frequencies --   1205.0131              1225.9223              1231.8930
 Red. masses --      1.3854                 1.4072                 1.4403
 Frc consts  --      1.1852                 1.2460                 1.2878
 IR Inten    --      2.3687                 0.4710                 0.5907

                     55                     56                     57
                      A                      A                      A
 Frequencies --   1246.0526              1252.5320              1265.6253
 Red. masses --      1.3106                 1.4030                 1.3084
 Frc consts  --      1.1989                 1.2968                 1.2348
 IR Inten    --      2.0421                 3.5504                 2.9442

                     58                     59                     60
                      A                      A                      A
 Frequencies --   1314.5775              1316.6473              1321.6716
 Red. masses --      1.2270                 1.2588                 1.2045
 Frc consts  --      1.2493                 1.2857                 1.2397
 IR Inten    --      1.1592                 3.8933                 0.5777

                     61                     62                     63
                      A                      A                      A
 Frequencies --   1335.2114              1340.0194              1342.1169
 Red. masses --      1.1738                 1.1696                 1.1481
 Frc consts  --      1.2330                 1.2374                 1.2184
 IR Inten    --      4.6394                 1.0033                 3.4525

                     64                     65                     66
                      A                      A                      A
 Frequencies --   1392.6201              1394.8130              1397.7291
 Red. masses --      1.3845                 1.3575                 1.3355
 Frc consts  --      1.5820                 1.5560                 1.5372
 IR Inten    --      2.4679                15.6772                 7.0384

                     67                     68                     69
                      A                      A                      A
 Frequencies --   1398.4300              1402.1803              1402.8508
 Red. masses --      1.3536                 1.4229                 1.4308
 Frc consts  --      1.5596                 1.6483                 1.6590
 IR Inten    --      3.3037                 3.1113                 4.9977

                     70                     71                     72
                      A                      A                      A
 Frequencies --   1441.8712              1442.5412              1447.3498
 Red. masses --      1.2604                 1.2601                 1.2532
 Frc consts  --      1.5439                 1.5449                 1.5467
 IR Inten    --      5.2523                 6.3725                 4.8009

                     73                     74                     75
                      A                      A                      A
 Frequencies --   1483.7069              1494.0847              1497.0222
 Red. masses --      1.0853                 1.0850                 1.0870
 Frc consts  --      1.4076                 1.4270                 1.4353
 IR Inten    --      2.0096                 3.9926                 3.4557

                     76                     77                     78
                      A                      A                      A
 Frequencies --   1515.6956              1516.4000              1517.4505
 Red. masses --      1.0666                 1.0763                 1.0714
 Frc consts  --      1.4437                 1.4581                 1.4536
 IR Inten    --      0.9755                 2.1096                 0.7454

                     79                     80                     81
                      A                      A                      A
 Frequencies --   1518.8806              1519.5675              1521.9968
 Red. masses --      1.0679                 1.0730                 1.0780
 Frc consts  --      1.4515                 1.4598                 1.4712
 IR Inten    --      2.8377                 1.2622                 2.1013

                     82                     83                     84
                      A                      A                      A
 Frequencies --   1530.2613              1532.3710              1533.7230
 Red. masses --      1.0466                 1.0523                 1.0598
 Frc consts  --      1.4440                 1.4559                 1.4688
 IR Inten    --     11.6117                 8.0111                 2.2017

                     85                     86                     87
                      A                      A                      A
 Frequencies --   1534.2806              1537.9715              1538.2627
 Red. masses --      1.0759                 1.0580                 1.0609
 Frc consts  --      1.4922                 1.4745                 1.4791
 IR Inten    --      9.8184                 6.6724                 4.1554

                     88                     89                     90
                      A                      A                      A
 Frequencies --   3014.8829              3015.5538              3017.2246
 Red. masses --      1.0633                 1.0625                 1.0600
 Frc consts  --      5.6942                 5.6924                 5.6857
 IR Inten    --     13.1315                18.2959                17.7799

                     91                     92                     93
                      A                      A                      A
 Frequencies --   3020.6433              3021.8096              3026.1430
 Red. masses --      1.0656                 1.0619                 1.0619
 Frc consts  --      5.7286                 5.7130                 5.7294
 IR Inten    --     22.8739                14.4057                32.3327

                     94                     95                     96
                      A                      A                      A
 Frequencies --   3028.3995              3031.2984              3037.5674
 Red. masses --      1.0621                 1.0638                 1.0648
 Frc consts  --      5.7391                 5.7591                 5.7886
 IR Inten    --     53.3439                19.8739                17.5220

                     97                     98                     99
                      A                      A                      A
 Frequencies --   3041.5967              3043.0324              3045.1926
 Red. masses --      1.0387                 1.0383                 1.0424
 Frc consts  --      5.6614                 5.6650                 5.6955
 IR Inten    --     25.2868                24.1956                23.9137

                    100                    101                    102
                      A                      A                      A
 Frequencies --   3054.0153              3054.7600              3057.8246
 Red. masses --      1.0942                 1.0987                 1.1014
 Frc consts  --      6.0127                 6.0408                 6.0677
 IR Inten    --     27.2131                26.2820                58.6203

                    103                    104                    105
                      A                      A                      A
 Frequencies --   3059.5808              3063.7243              3067.0194
 Red. masses --      1.0984                 1.0950                 1.1012
 Frc consts  --      6.0583                 6.0554                 6.1033
 IR Inten    --     22.1113                31.3603                20.2590

                    106                    107                    108
                      A                      A                      A
 Frequencies --   3073.8869              3078.1785              3083.7841
 Red. masses --      1.0996                 1.1035                 1.0979
 Frc consts  --      6.1216                 6.1602                 6.1515
 IR Inten    --      8.9587                70.6390                46.9919

                    109                    110                    111
                      A                      A                      A
 Frequencies --   3104.6746              3106.5642              3106.7270
 Red. masses --      1.1021                 1.1013                 1.1014
 Frc consts  --      6.2591                 6.2623                 6.2632
 IR Inten    --     72.7497                22.5957                63.7522

                    112                    113                    114
                      A                      A                      A
 Frequencies --   3111.6486              3114.9513              3129.9267
 Red. masses --      1.1015                 1.1019                 1.1002
 Frc consts  --      6.2840                 6.2993                 6.3501
 IR Inten    --     53.3887                54.9680                37.8633

 - Thermochemistry -
 -------------------
 Temperature   298.150 Kelvin.  Pressure   1.00000 Atm.
 Atom     1 has atomic number  6 and mass  12.00000

 Molecular mass:   202.18504 amu.
 Principal axes and moments of inertia in atomic units:
                           1         2         3
     Eigenvalues --  2758.125144898.399696745.05160
           X            0.99997  -0.00657   0.00416
           Y            0.00657   0.99998   0.00044
           Z           -0.00416  -0.00041   0.99999
 This molecule is an asymmetric top.
 Rotational symmetry number  1.
 Warning -- assumption of classical behavior for rotation
           may cause significant error
 Rotational temperatures (Kelvin)      0.03140     0.01768     0.01284
 Rotational constants (GHZ):           0.65434     0.36843     0.26757
 Zero-point vibrational energy     976918.3 (Joules/Mol)
                                  233.48908 (Kcal/Mol)
 Warning -- explicit consideration of  25 degrees of freedom as
           vibrations may cause significant error
 Vibrational temperatures:     26.08    34.16    49.93    66.78    69.50
          (Kelvin)            108.08   122.63   148.15   191.45   204.89
                              239.26   286.57   327.67   335.00   348.68
                              376.58   400.75   434.85   459.15   470.57
                              535.49   625.49   656.53   657.45   886.67
                              933.39  1031.17  1055.77  1091.40  1122.49
                             1130.42  1140.24  1155.58  1247.54  1266.22
                             1271.35  1293.32  1311.34  1350.57  1412.20
                             1419.11  1428.13  1518.24  1546.73  1553.69
                             1564.10  1574.08  1582.27  1596.94  1613.51
                             1614.96  1733.75  1763.83  1772.42  1792.79
                             1802.11  1820.95  1891.38  1894.36  1901.59
                             1921.07  1927.99  1931.01  2003.67  2006.82
                             2011.02  2012.03  2017.42  2018.39  2074.53
                             2075.50  2082.41  2134.72  2149.65  2153.88
                             2180.75  2181.76  2183.27  2185.33  2186.32
                             2189.81  2201.70  2204.74  2206.69  2207.49
                             2212.80  2213.22  4337.74  4338.71  4341.11
                             4346.03  4347.71  4353.94  4357.19  4361.36
                             4370.38  4376.18  4378.24  4381.35  4394.05
                             4395.12  4399.53  4402.05  4408.02  4412.76
                             4422.64  4428.81  4436.88  4466.93  4469.65
                             4469.89  4476.97  4481.72  4503.27

 Zero-point correction=                           0.372089 (Hartree/Particle)
 Thermal correction to Energy=                    0.390687
 Thermal correction to Enthalpy=                  0.391631
 Thermal correction to Gibbs Free Energy=         0.322392
 Sum of electronic and zero-point Energies=           -814.533833
 Sum of electronic and thermal Energies=              -814.515235
 Sum of electronic and thermal Enthalpies=            -814.514291
 Sum of electronic and thermal Free Energies=         -814.583530

                     E (Thermal)             CV                S
                      KCal/Mol        Cal/Mol-Kelvin    Cal/Mol-Kelvin
 Total                  245.160             66.193            145.726
 Electronic               0.000              0.000              0.000
 Translational            0.889              2.981             41.817
 Rotational               0.889              2.981             32.877
 Vibrational            243.382             60.231             71.032
 Vibration     1          0.593              1.986              6.830
 Vibration     2          0.593              1.985              6.294
 Vibration     3          0.594              1.983              5.541
 Vibration     4          0.595              1.979              4.965
 Vibration     5          0.595              1.978              4.886
 Vibration     6          0.599              1.966              4.015
 Vibration     7          0.601              1.959              3.767
 Vibration     8          0.605              1.947              3.397
 Vibration     9          0.613              1.920              2.901
 Vibration    10          0.616              1.911              2.771
 Vibration    11          0.624              1.884              2.477
 Vibration    12          0.637              1.841              2.141
 Vibration    13          0.651              1.799              1.897
 Vibration    14          0.654              1.791              1.857
 Vibration    15          0.659              1.775              1.786
 Vibration    16          0.669              1.743              1.650
 Vibration    17          0.679              1.713              1.543
 Vibration    18          0.694              1.669              1.405
 Vibration    19          0.705              1.637              1.315
 Vibration    20          0.711              1.621              1.275
 Vibration    21          0.744              1.529              1.071
 Vibration    22          0.795              1.395              0.843
 Vibration    23          0.815              1.347              0.777
 Vibration    24          0.815              1.346              0.775
 Vibration    25          0.976              0.997              0.423

 Optimization completed.
    -- Stationary point found.
 Normal termination of Gaussian 16 at Sun Aug 23 08:35:34 2020.
 Gaussian 16:  ES64L-G16RevA.03 25-Dec-2016

 ----------------------------------------------------------------------
 # TD(NStates=10, Root=1) B3LYP/6-31G* scf=qc volume pop=NPA density=cu
 rrent Geom=AllCheck Guess=Read
 ----------------------------------------------------------------------

 Structure from the checkpoint file:  "phosphine_2_conf143.chk"
 -------------------
 Title Card Required
 -------------------
 Charge =  0 Multiplicity = 1

                         Standard orientation:
 ---------------------------------------------------------------------
 Center     Atomic      Atomic             Coordinates (Angstroms)
 Number     Number       Type             X           Y           Z
 ---------------------------------------------------------------------
      1          6           0       -3.146377   -1.830354   -1.435749
      2          6           0       -3.205605   -2.358539    0.001711
      3          6           0       -2.419519   -1.548052    1.047883
      4          6           0       -0.879868   -1.597964    0.921185
      5          1           0       -0.425040   -1.502072    1.917078
      6          1           0       -0.577058   -2.583191    0.540715
      7         15           0       -0.099512   -0.307496   -0.208333
      8          6           0       -0.138971    1.160532    0.977205
      9          1           0       -1.118064    1.141708    1.471990
     10          1           0        0.605263    0.998906    1.769964
     11          6           0        0.080323    2.539815    0.324994
     12          6           0       -1.031627    3.002055   -0.632929
     13          6           0       -2.381606    3.266660    0.044308
     14          6           0        1.684477   -0.872595   -0.024141
     15          1           0        1.936229   -0.959498    1.042090
     16          1           0        1.723355   -1.889382   -0.441342
     17          6           0        2.709290    0.007472   -0.757475
     18          6           0        4.135351   -0.571973   -0.778566
     19          6           0        4.801610   -0.675202    0.598383
     20          1           0       -3.773374   -2.439861   -2.097611
     21          1           0       -2.127904   -1.836309   -1.835650
     22          1           0       -3.508907   -0.796522   -1.491231
     23          1           0       -2.850247   -3.399204    0.024334
     24          1           0       -4.256315   -2.393514    0.321439
     25          1           0       -2.688354   -1.937308    2.039254
     26          1           0       -2.771528   -0.505857    1.036903
     27          1           0        1.034371    2.540450   -0.217875
     28          1           0        0.189450    3.287381    1.125047
     29          1           0       -1.159452    2.256686   -1.428213
     30          1           0       -0.696940    3.924493   -1.126467
     31          1           0       -2.809618    2.356257    0.479756
     32          1           0       -3.111279    3.655279   -0.675313
     33          1           0       -2.283698    4.005163    0.850393
     34          1           0        2.739595    1.004461   -0.296286
     35          1           0        2.374262    0.158524   -1.792381
     36          1           0        4.756885    0.059109   -1.428362
     37          1           0        4.112558   -1.564883   -1.250267
     38          1           0        4.840204    0.304184    1.092093
     39          1           0        5.830245   -1.043450    0.511150
     40          1           0        4.263171   -1.360238    1.262931
 ---------------------------------------------------------------------

 SCF Done:  E(RB3LYP) =  -814.905921948     a.u. after    1 cycles

 Excitation energies and oscillator strengths:

 Excited State   1:      Singlet-A      6.3494 eV  195.27 nm  f=0.1257  <S**2>=0.000
      57 -> 58         0.69390
 This state for optimization and/or second-order correction.
 Total Energy, E(TD-HF/TD-DFT) =  -814.672587093
 Copying the excited state density for this state as the 1-particle RhoCI density.

 Excited State   2:      Singlet-A      6.6194 eV  187.30 nm  f=0.1225  <S**2>=0.000
      57 -> 59         0.69126

 Excited State   3:      Singlet-A      7.0712 eV  175.34 nm  f=0.0129  <S**2>=0.000
      57 -> 60         0.69655

 Excited State   4:      Singlet-A      7.6316 eV  162.46 nm  f=0.0191  <S**2>=0.000
      57 -> 61         0.68161
      57 -> 62         0.15413

 Excited State   5:      Singlet-A      7.7239 eV  160.52 nm  f=0.0212  <S**2>=0.000
      57 -> 61        -0.15663
      57 -> 62         0.63415
      57 -> 63        -0.23069

 Excited State   6:      Singlet-A      7.9049 eV  156.84 nm  f=0.0107  <S**2>=0.000
      57 -> 62         0.23688
      57 -> 63         0.63189
      57 -> 65        -0.12411
      57 -> 66        -0.10836

 Excited State   7:      Singlet-A      8.1147 eV  152.79 nm  f=0.0470  <S**2>=0.000
      55 -> 58         0.15942
      56 -> 58         0.13807
      57 -> 64         0.66611

 Excited State   8:      Singlet-A      8.1658 eV  151.83 nm  f=0.0035  <S**2>=0.000
      55 -> 58         0.52711
      56 -> 58         0.17264
      56 -> 59        -0.37225
      57 -> 64        -0.18548

 Excited State   9:      Singlet-A      8.2363 eV  150.53 nm  f=0.0084  <S**2>=0.000
      56 -> 58         0.27857
      57 -> 63         0.15242
      57 -> 65         0.61192

 Excited State  10:      Singlet-A      8.2911 eV  149.54 nm  f=0.0354  <S**2>=0.000
      55 -> 58        -0.14165
      55 -> 59        -0.15600
      56 -> 58         0.56647
      56 -> 59         0.13630
      57 -> 64        -0.10689
      57 -> 65        -0.26233
      57 -> 66        -0.12262

 The electronic state is 1-A.
 Alpha  occ. eigenvalues --  -77.06329 -10.18156 -10.18114 -10.18026 -10.17996
 Alpha  occ. eigenvalues --  -10.17942 -10.17923 -10.17865 -10.17641 -10.17302
 Alpha  occ. eigenvalues --  -10.17211 -10.16895 -10.16306  -6.53089  -4.69339
 Alpha  occ. eigenvalues --   -4.69336  -4.68850  -0.79830  -0.78772  -0.78492
 Alpha  occ. eigenvalues --   -0.73892  -0.71218  -0.71044  -0.66063  -0.63304
 Alpha  occ. eigenvalues --   -0.62823  -0.57629  -0.56354  -0.55990  -0.51598
 Alpha  occ. eigenvalues --   -0.46427  -0.45240  -0.45067  -0.44864  -0.44159
 Alpha  occ. eigenvalues --   -0.43232  -0.41451  -0.41209  -0.39620  -0.39109
 Alpha  occ. eigenvalues --   -0.38278  -0.38102  -0.37806  -0.36786  -0.35740
 Alpha  occ. eigenvalues --   -0.35358  -0.33683  -0.33228  -0.32845  -0.32667
 Alpha  occ. eigenvalues --   -0.32128  -0.31857  -0.31714  -0.31624  -0.29029
 Alpha  occ. eigenvalues --   -0.28409  -0.21260
 Alpha virt. eigenvalues --    0.04954   0.05857   0.07718   0.09985   0.10280
 Alpha virt. eigenvalues --    0.10714   0.11413   0.12138   0.12819   0.13728
 Alpha virt. eigenvalues --    0.14135   0.14829   0.15318   0.15698   0.16072

 Mulliken charges:
               1
     1  C   -0.428962
     2  C   -0.239934
     3  C   -0.228845
     4  C   -0.422034
     5  H    0.154431
     6  H    0.149996
     7  P    0.308202
     8  C   -0.422557
     9  H    0.191862
    10  H    0.171170
    11  C   -0.252611
    12  C   -0.253169
    13  C   -0.443493
    14  C   -0.423044
    15  H    0.165255
    16  H    0.137713
    17  C   -0.225863
    18  C   -0.246740
    19  C   -0.434981
    20  H    0.130641
    21  H    0.145699
    22  H    0.136156
    23  H    0.121562
    24  H    0.127908
    25  H    0.113933
    26  H    0.101402
    27  H    0.138051
    28  H    0.126655
    29  H    0.153198
    30  H    0.134054
    31  H    0.136597
    32  H    0.143621
    33  H    0.136637
    34  H    0.126553
    35  H    0.117579
    36  H    0.124059
    37  H    0.125195
    38  H    0.135497
    39  H    0.136744
    40  H    0.131863
 Sum of Mulliken charges =  -0.00000

 Dipole moment (field-independent basis, Debye):
    X=              0.4385    Y=              0.1223    Z=              1.0802  Tot=              1.1722
 Quadrupole moment (field-independent basis, Debye-Ang):
   XX=           -100.7234   YY=            -94.1549   ZZ=            -94.9822
   XY=             -0.1444   XZ=              0.4707   YZ=              0.8050

 Summary of Natural Population Analysis:

                                       Natural Population
                Natural  -----------------------------------------------
    Atom  No    Charge         Core      Valence    Rydberg      Total
 -----------------------------------------------------------------------
      C    1   -0.67526      1.99945     4.66763    0.00818     6.67526
      C    2   -0.45327      1.99935     4.44314    0.01078     6.45327
      C    3   -0.46503      1.99931     4.45140    0.01431     6.46503
      C    4   -0.83081      1.99932     4.80834    0.02316     6.83081
      H    5    0.25544      0.00000     0.74008    0.00448     0.74456
      H    6    0.24443      0.00000     0.75313    0.00244     0.75557
      P    7    0.97929      9.99764     3.91430    0.10877    14.02071
      C    8   -0.73515      1.99928     4.71901    0.01685     6.73515
      H    9    0.25780      0.00000     0.74030    0.00190     0.74220
      H   10    0.25612      0.00000     0.73815    0.00573     0.74388
      C   11   -0.45701      1.99931     4.44307    0.01463     6.45701
      C   12   -0.45759      1.99935     4.44519    0.01305     6.45759
      C   13   -0.68087      1.99946     4.67263    0.00878     6.68087
      C   14   -0.84127      1.99932     4.81600    0.02595     6.84127
      H   15    0.25237      0.00000     0.74564    0.00199     0.74763
      H   16    0.23659      0.00000     0.75941    0.00400     0.76341
      C   17   -0.46066      1.99932     4.44733    0.01401     6.46066
      C   18   -0.45336      1.99935     4.44265    0.01136     6.45336
      C   19   -0.67708      1.99946     4.67004    0.00758     6.67708
      H   20    0.22371      0.00000     0.77349    0.00279     0.77629
      H   21    0.21848      0.00000     0.78055    0.00096     0.78152
      H   22    0.22260      0.00000     0.77176    0.00563     0.77740
      H   23    0.22096      0.00000     0.77578    0.00326     0.77904
      H   24    0.23008      0.00000     0.76729    0.00263     0.76992
      H   25    0.22828      0.00000     0.76588    0.00584     0.77172
      H   26    0.20320      0.00000     0.78382    0.01298     0.79680
      H   27    0.23205      0.00000     0.76203    0.00592     0.76795
      H   28    0.23049      0.00000     0.76591    0.00361     0.76951
      H   29    0.23473      0.00000     0.76404    0.00123     0.76527
      H   30    0.23493      0.00000     0.76351    0.00156     0.76507
      H   31    0.21323      0.00000     0.77895    0.00782     0.78677
      H   32    0.23364      0.00000     0.76560    0.00076     0.76636
      H   33    0.22122      0.00000     0.77755    0.00123     0.77878
      H   34    0.21884      0.00000     0.77762    0.00353     0.78116
      H   35    0.22330      0.00000     0.76921    0.00748     0.77670
      H   36    0.22693      0.00000     0.76972    0.00335     0.77307
      H   37    0.22345      0.00000     0.77341    0.00314     0.77655
      H   38    0.22058      0.00000     0.77785    0.00157     0.77942
      H   39    0.22779      0.00000     0.77012    0.00210     0.77221
      H   40    0.21680      0.00000     0.77985    0.00334     0.78320
 =======================================================================
   * Total *   -0.00000     33.98992    79.63139    0.37870   114.00000

 Normal termination of Gaussian 16 at Sun Aug 23 08:42:31 2020.
