 Gaussian 16, Revision A.03,

 ---------------------------------
 # opt=CalcAll B3LYP/6-31G* scf=qc
 ---------------------------------

 -------------------
 Title Card Required
 -------------------
 Symbolic Z-matrix:
 Charge =  0 Multiplicity = 1

 SCF Done:  E(RB3LYP) =  -1029.60341944     a.u. after    9 cycles
 SCF Done:  E(RB3LYP) =  -1029.61820876     a.u. after   17 cycles
 SCF Done:  E(RB3LYP) =  -1029.62261774     a.u. after   19 cycles
 SCF Done:  E(RB3LYP) =  -1029.62442032     a.u. after   15 cycles
 SCF Done:  E(RB3LYP) =  -1029.62482572     a.u. after   15 cycles
 SCF Done:  E(RB3LYP) =  -1029.62487566     a.u. after    9 cycles
 SCF Done:  E(RB3LYP) =  -1029.62487534     a.u. after    3 cycles
 SCF Done:  E(RB3LYP) =  -1029.62487359     a.u. after    2 cycles
 SCF Done:  E(RB3LYP) =  -1029.62483165     a.u. after    9 cycles
 SCF Done:  E(RB3LYP) =  -1029.62487234     a.u. after    9 cycles
 SCF Done:  E(RB3LYP) =  -1029.62487659     a.u. after    4 cycles
 SCF Done:  E(RB3LYP) =  -1029.62487612     a.u. after    3 cycles
 SCF Done:  E(RB3LYP) =  -1029.62487293     a.u. after    2 cycles
 SCF Done:  E(RB3LYP) =  -1029.62487211     a.u. after    2 cycles
 SCF Done:  E(RB3LYP) =  -1029.62487532     a.u. after    2 cycles
 SCF Done:  E(RB3LYP) =  -1029.62487734     a.u. after    2 cycles
 Optimization completed.
    -- Stationary point found.
 Normal termination of Gaussian 16 at Sun Aug 23 15:03:07 2020.

 ----------------------------------------------------------------------
 # freq B3LYP/6-31G* scf=qc volume NMR pop=NPA density=current Geom=All
 Check Guess=Read
 ----------------------------------------------------------------------

 Structure from the checkpoint file:  "phosphine_9_conf242.chk"
 -------------------
 Title Card Required
 -------------------
 Charge =  0 Multiplicity = 1

 SCF Done:  E(RB3LYP) =  -1029.62487734     a.u. after    1 cycles

      1  C    Isotropic =    84.6786   Anisotropy =   120.9909

      2  C    Isotropic =    75.8341   Anisotropy =   132.7051

      3  C    Isotropic =    43.3940   Anisotropy =    89.2052

      4  O    Isotropic =    39.7950   Anisotropy =   300.8172

      5  C    Isotropic =    50.6602   Anisotropy =    98.8406

      6  P    Isotropic =   433.0149   Anisotropy =    38.0105

      7  C    Isotropic =    43.3984   Anisotropy =    89.2341

      8  C    Isotropic =    75.8552   Anisotropy =   132.6479

      9  C    Isotropic =    84.7202   Anisotropy =   121.0784

     10  C    Isotropic =    50.6719   Anisotropy =    98.8728

     11  O    Isotropic =    39.8364   Anisotropy =   300.8556

     12  C    Isotropic =    43.3969   Anisotropy =    89.2265

     13  C    Isotropic =    75.8486   Anisotropy =   132.6613

     14  C    Isotropic =    84.7178   Anisotropy =   121.0670

     15  C    Isotropic =    50.6559   Anisotropy =    98.8845

     16  O    Isotropic =    39.8344   Anisotropy =   300.8447

     17  H    Isotropic =    26.0651   Anisotropy =     2.3607

     18  H    Isotropic =    25.9736   Anisotropy =     7.4847

     19  H    Isotropic =    24.7877   Anisotropy =     3.5194

     20  H    Isotropic =    25.9784   Anisotropy =     7.4816

     21  H    Isotropic =    26.0646   Anisotropy =     2.3658

     22  H    Isotropic =    24.7872   Anisotropy =     3.5201

     23  H    Isotropic =    25.9769   Anisotropy =     7.4838

     24  H    Isotropic =    26.0641   Anisotropy =     2.3644

     25  H    Isotropic =    24.7861   Anisotropy =     3.5190

  Exact polarizability: 162.551   0.016 162.511  -0.020   0.007 116.193
 Approx polarizability: 231.417   0.041 231.337  -0.050   0.025 223.195

                      1                      2                      3
                      A                      A                      A
 Frequencies --     37.7578                38.1707                55.4745
 Red. masses --      4.8425                 4.8542                 4.5738
 Frc consts  --      0.0041                 0.0042                 0.0083
 IR Inten    --      0.1533                 0.1484                 0.1448

                      4                      5                      6
                      A                      A                      A
 Frequencies --     58.7495                58.8512                77.4272
 Red. masses --      5.3940                 5.3857                 5.3512
 Frc consts  --      0.0110                 0.0110                 0.0189
 IR Inten    --      0.3700                 0.3756                 0.4442

                      7                      8                      9
                      A                      A                      A
 Frequencies --    202.0161               222.2941               222.5858
 Red. masses --      5.6714                 5.6199                 5.6222
 Frc consts  --      0.1364                 0.1636                 0.1641
 IR Inten    --      0.5782                 2.6643                 2.6635

                     10                     11                     12
                      A                      A                      A
 Frequencies --    279.9098               294.5971               294.6532
 Red. masses --      8.1143                 6.4487                 6.4475
 Frc consts  --      0.3746                 0.3297                 0.3298
 IR Inten    --      2.9415                 2.5718                 2.5637

                     13                     14                     15
                      A                      A                      A
 Frequencies --    479.9702               495.3916               495.4954
 Red. masses --     10.9426                13.6858                13.6910
 Frc consts  --      1.4853                 1.9789                 1.9805
 IR Inten    --     22.5571                38.1824                38.1838

                     16                     17                     18
                      A                      A                      A
 Frequencies --    611.4767               611.4937               612.0990
 Red. masses --      3.2816                 3.2832                 3.2719
 Frc consts  --      0.7229                 0.7233                 0.7222
 IR Inten    --      9.0150                 8.9913                 3.6098

                     19                     20                     21
                      A                      A                      A
 Frequencies --    658.9655               659.0786               664.3579
 Red. masses --      6.1413                 6.1405                 6.4768
 Frc consts  --      1.5712                 1.5716                 1.6843
 IR Inten    --      5.8263                 5.8284                 0.6536

                     22                     23                     24
                      A                      A                      A
 Frequencies --    755.6191               756.0002               756.0603
 Red. masses --      1.2882                 1.2879                 1.2878
 Frc consts  --      0.4334                 0.4337                 0.4337
 IR Inten    --     33.8764                45.8788                46.0617

                     25                     26                     27
                      A                      A                      A
 Frequencies --    827.0309               827.1532               829.7101
 Red. masses --      1.2416                 1.2415                 1.2351
 Frc consts  --      0.5004                 0.5005                 0.5009
 IR Inten    --     12.0727                12.0568                 4.8408

                     28                     29                     30
                      A                      A                      A
 Frequencies --    879.0992               879.2129               882.5848
 Red. masses --      1.3003                 1.3000                 1.2976
 Frc consts  --      0.5920                 0.5921                 0.5955
 IR Inten    --      1.6239                 1.6480                 0.1976

                     31                     32                     33
                      A                      A                      A
 Frequencies --    900.0756               900.0940               900.1355
 Red. masses --      6.2533                 6.2491                 6.1332
 Frc consts  --      2.9848                 2.9829                 2.9279
 IR Inten    --      3.4467                 3.4628                 3.7485

                     34                     35                     36
                      A                      A                      A
 Frequencies --    924.2215               925.9453               925.9622
 Red. masses --      4.7038                 4.7161                 4.7161
 Frc consts  --      2.3673                 2.3823                 2.3824
 IR Inten    --     14.9313                 3.6080                 3.5914

                     37                     38                     39
                      A                      A                      A
 Frequencies --   1036.0307              1036.2901              1038.0849
 Red. masses --      1.4146                 1.4146                 1.3869
 Frc consts  --      0.8946                 0.8951                 0.8806
 IR Inten    --     13.9664                13.9993                51.9786

                     40                     41                     42
                      A                      A                      A
 Frequencies --   1104.0553              1104.1402              1106.2918
 Red. masses --      2.2038                 2.2054                 2.1830
 Frc consts  --      1.5827                 1.5841                 1.5741
 IR Inten    --      1.1588                 1.1653                 1.5244

                     43                     44                     45
                      A                      A                      A
 Frequencies --   1140.7506              1140.7723              1147.5736
 Red. masses --      5.6068                 5.6065                 4.7272
 Frc consts  --      4.2988                 4.2987                 3.6679
 IR Inten    --      2.4527                 2.4386                24.8461

                     46                     47                     48
                      A                      A                      A
 Frequencies --   1197.1890              1197.2060              1200.8783
 Red. masses --      2.2386                 2.2386                 2.4381
 Frc consts  --      1.8904                 1.8905                 2.0716
 IR Inten    --      9.3369                 9.3143                 1.1770

                     49                     50                     51
                      A                      A                      A
 Frequencies --   1249.5908              1249.7433              1250.2915
 Red. masses --      1.6644                 1.6637                 1.7056
 Frc consts  --      1.5312                 1.5309                 1.5709
 IR Inten    --     19.1691                19.0355                 4.6102

                     52                     53                     54
                      A                      A                      A
 Frequencies --   1417.8912              1417.9208              1419.6576
 Red. masses --      2.5686                 2.5686                 2.5347
 Frc consts  --      3.0425                 3.0427                 3.0099
 IR Inten    --      1.0936                 1.0932                 3.8802

                     55                     56                     57
                      A                      A                      A
 Frequencies --   1490.3195              1496.6511              1496.6915
 Red. masses --      5.5384                 5.4224                 5.4223
 Frc consts  --      7.2476                 7.1562                 7.1565
 IR Inten    --     15.7772                11.2377                11.1812

                     58                     59                     60
                      A                      A                      A
 Frequencies --   1605.0891              1607.3727              1607.3843
 Red. masses --      4.8337                 4.8688                 4.8678
 Frc consts  --      7.3371                 7.4115                 7.4101
 IR Inten    --      3.4924                 1.6329                 1.6318

                     61                     62                     63
                      A                      A                      A
 Frequencies --   3264.5559              3264.5672              3264.7301
 Red. masses --      1.0904                 1.0903                 1.0904
 Frc consts  --      6.8465                 6.8465                 6.8472
 IR Inten    --      5.2927                 5.2884                 1.4899

                     64                     65                     66
                      A                      A                      A
 Frequencies --   3280.1945              3280.2412              3280.2827
 Red. masses --      1.0971                 1.0972                 1.0972
 Frc consts  --      6.9551                 6.9556                 6.9557
 IR Inten    --      1.0265                 0.5568                 0.5472

                     67                     68                     69
                      A                      A                      A
 Frequencies --   3299.0555              3299.0850              3299.1231
 Red. masses --      1.1046                 1.1046                 1.1046
 Frc consts  --      7.0832                 7.0833                 7.0836
 IR Inten    --      3.0826                 3.0406                 0.5623

 - Thermochemistry -
 -------------------
 Temperature   298.150 Kelvin.  Pressure   1.00000 Atm.
 Atom     1 has atomic number  6 and mass  12.00000

 Molecular mass:   232.02893 amu.
 Principal axes and moments of inertia in atomic units:
                           1         2         3
     Eigenvalues --  3613.038353613.723106126.47242
           X            0.99972   0.02360   0.00000
           Y           -0.02360   0.99972   0.00000
           Z           -0.00000  -0.00000   1.00000
 This molecule is an asymmetric top.
 Rotational symmetry number  1.
 Warning -- assumption of classical behavior for rotation
           may cause significant error
 Rotational temperatures (Kelvin)      0.02397     0.02397     0.01414
 Rotational constants (GHZ):           0.49951     0.49941     0.29458
 Zero-point vibrational energy     480237.4 (Joules/Mol)
                                  114.77949 (Kcal/Mol)
 Warning -- explicit consideration of  18 degrees of freedom as
           vibrations may cause significant error
 Vibrational temperatures:     54.33    54.92    79.82    84.53    84.67
          (Kelvin)            111.40   290.66   319.83   320.25   402.73
                              423.86   423.94   690.57   712.76   712.91
                              879.78   879.80   880.67   948.10   948.27
                              955.86  1087.17  1087.72  1087.80  1189.91
                             1190.09  1193.77  1264.83  1264.99  1269.84
                             1295.01  1295.03  1295.09  1329.75  1332.23
                             1332.25  1490.62  1490.99  1493.57  1588.49
                             1588.61  1591.71  1641.29  1641.32  1651.10
                             1722.49  1722.51  1727.80  1797.88  1798.10
                             1798.89  2040.03  2040.07  2042.57  2144.24
                             2153.35  2153.41  2309.37  2312.65  2312.67
                             4696.97  4696.98  4697.22  4719.47  4719.54
                             4719.60  4746.61  4746.65  4746.70

 Zero-point correction=                           0.182913 (Hartree/Particle)
 Thermal correction to Energy=                    0.196496
 Thermal correction to Enthalpy=                  0.197440
 Thermal correction to Gibbs Free Energy=         0.139687
 Sum of electronic and zero-point Energies=          -1029.441965
 Sum of electronic and thermal Energies=             -1029.428381
 Sum of electronic and thermal Enthalpies=           -1029.427437
 Sum of electronic and thermal Free Energies=        -1029.485191

                     E (Thermal)             CV                S
                      KCal/Mol        Cal/Mol-Kelvin    Cal/Mol-Kelvin
 Total                  123.303             50.775            121.553
 Electronic               0.000              0.000              0.000
 Translational            0.889              2.981             42.227
 Rotational               0.889              2.981             32.747
 Vibrational            121.526             44.813             46.579
 Vibration     1          0.594              1.982              5.373
 Vibration     2          0.594              1.982              5.352
 Vibration     3          0.596              1.975              4.612
 Vibration     4          0.596              1.974              4.499
 Vibration     5          0.596              1.974              4.495
 Vibration     6          0.599              1.964              3.955
 Vibration     7          0.639              1.837              2.115
 Vibration     8          0.648              1.807              1.940
 Vibration     9          0.648              1.807              1.938
 Vibration    10          0.680              1.711              1.534
 Vibration    11          0.689              1.684              1.447
 Vibration    12          0.689              1.684              1.447
 Vibration    13          0.836              1.294              0.710
 Vibration    14          0.851              1.260              0.670
 Vibration    15          0.851              1.260              0.669
 Vibration    16          0.971              1.008              0.430
 Vibration    17          0.971              1.008              0.430
 Vibration    18          0.971              1.006              0.429

                           ! Non-Optimized Parameters !
 Normal termination of Gaussian 16 at Sun Aug 23 15:09:27 2020.
 Gaussian 16:  ES64L-G16RevA.03 25-Dec-2016

 ----------------------------------------------------------------------
 # TD(NStates=10, Root=1) B3LYP/6-31G* scf=qc volume pop=NPA density=cu
 rrent Geom=AllCheck Guess=Read
 ----------------------------------------------------------------------

 Structure from the checkpoint file:  "phosphine_9_conf243.chk"
 -------------------
 Title Card Required
 -------------------
 Charge =  0 Multiplicity = 1

                         Standard orientation:
 ---------------------------------------------------------------------
 Center     Atomic      Atomic             Coordinates (Angstroms)
 Number     Number       Type             X           Y           Z
 ---------------------------------------------------------------------
      1          6           0        3.331083    1.121796    0.976542
      2          6           0        2.186123    0.265978    0.912362
      3          6           0        1.490740    0.617787   -0.214189
      4          8           0        2.153806    1.640211   -0.855001
      5          6           0        3.255160    1.933314   -0.115139
      6         15           0        0.000031    0.000047   -1.071038
      7          6           0       -0.210442   -1.599835   -0.214226
      8          6           0       -0.864679   -2.026613    0.911060
      9          6           0       -0.694911   -3.445950    0.975672
     10          6           0        0.048286   -3.785415   -0.114504
     11          8           0        0.345628   -2.684855   -0.853881
     12          6           0       -1.280372    0.982222   -0.214333
     13          6           0       -1.322948    1.762380    0.910829
     14          6           0       -2.637024    2.325017    0.975262
     15          6           0       -3.302536    1.850932   -0.114877
     16          8           0       -2.498037    1.043034   -0.854065
     17          1           0        4.104874    1.128529    1.731795
     18          1           0        1.909280   -0.514988    1.606277
     19          1           0        3.875352    2.731329   -0.495242
     20          1           0       -1.404512   -1.396842    1.603910
     21          1           0       -1.076878   -4.119697    1.730238
     22          1           0        0.430872   -4.721218   -0.493771
     23          1           0       -0.507689    1.915178    1.603701
     24          1           0       -3.029580    2.992790    1.729705
     25          1           0       -4.304242    1.987423   -0.494218
 ---------------------------------------------------------------------

 SCF Done:  E(RB3LYP) =  -1029.62487734     a.u. after    1 cycles

 Excitation energies and oscillator strengths:

 Excited State   1:      Singlet-A      4.7324 eV  261.99 nm  f=0.1416  <S**2>=0.000
      60 -> 61         0.69373
 This state for optimization and/or second-order correction.
 Total Energy, E(TD-HF/TD-DFT) =  -1029.45096447
 Copying the excited state density for this state as the 1-particle RhoCI density.

 Excited State   2:      Singlet-A      4.7337 eV  261.92 nm  f=0.1419  <S**2>=0.000
      60 -> 62         0.69371

 Excited State   3:      Singlet-A      5.3047 eV  233.73 nm  f=0.0001  <S**2>=0.000
      58 -> 61         0.28350
      58 -> 62         0.40604
      59 -> 61         0.40946
      59 -> 62        -0.28343

 Excited State   4:      Singlet-A      5.3997 eV  229.61 nm  f=0.0002  <S**2>=0.000
      58 -> 61         0.23539
      58 -> 62        -0.14845
      59 -> 61        -0.15202
      59 -> 62        -0.23750
      60 -> 63         0.58169

 Excited State   5:      Singlet-A      5.4657 eV  226.84 nm  f=0.1681  <S**2>=0.000
      58 -> 62         0.48555
      59 -> 61        -0.48184

 Excited State   6:      Singlet-A      5.4662 eV  226.82 nm  f=0.1686  <S**2>=0.000
      58 -> 61         0.48422
      59 -> 62         0.48316

 Excited State   7:      Singlet-A      6.0314 eV  205.57 nm  f=0.0118  <S**2>=0.000
      58 -> 61        -0.32116
      58 -> 62         0.23404
      59 -> 61         0.23331
      59 -> 62         0.32134
      60 -> 63         0.38992

 Excited State   8:      Singlet-A      6.1711 eV  200.91 nm  f=0.0566  <S**2>=0.000
      54 -> 61         0.12597
      57 -> 61         0.46782
      59 -> 63         0.48593
      60 -> 64        -0.10028

 Excited State   9:      Singlet-A      6.1719 eV  200.89 nm  f=0.0563  <S**2>=0.000
      54 -> 62         0.12583
      57 -> 62         0.46737
      58 -> 63         0.48624
      60 -> 65         0.10008

 Excited State  10:      Singlet-A      6.2518 eV  198.32 nm  f=0.0680  <S**2>=0.000
      57 -> 61        -0.31600
      58 -> 63        -0.17371
      59 -> 63         0.37241
      60 -> 64         0.42988

 The electronic state is 1-A.
 Alpha  occ. eigenvalues --  -77.10443 -19.21553 -19.21551 -19.21551 -10.23919
 Alpha  occ. eigenvalues --  -10.23918 -10.23917 -10.23693 -10.23693 -10.23692
 Alpha  occ. eigenvalues --  -10.19077 -10.19076 -10.19075 -10.18943 -10.18942
 Alpha  occ. eigenvalues --  -10.18941  -6.57106  -4.73366  -4.73366  -4.72864
 Alpha  occ. eigenvalues --   -1.10749  -1.10667  -1.10666  -0.80185  -0.79752
 Alpha  occ. eigenvalues --   -0.79751  -0.77542  -0.73926  -0.73925  -0.64938
 Alpha  occ. eigenvalues --   -0.60003  -0.59871  -0.59870  -0.55795  -0.55794
 Alpha  occ. eigenvalues --   -0.54788  -0.53287  -0.53286  -0.48933  -0.45121
 Alpha  occ. eigenvalues --   -0.45119  -0.44656  -0.42745  -0.42744  -0.42347
 Alpha  occ. eigenvalues --   -0.40363  -0.40313  -0.40312  -0.38831  -0.38830
 Alpha  occ. eigenvalues --   -0.37511  -0.36230  -0.36229  -0.28135  -0.27887
 Alpha  occ. eigenvalues --   -0.27885  -0.27315  -0.23487  -0.23484  -0.20895
 Alpha virt. eigenvalues --   -0.01046  -0.01043   0.01544   0.05283   0.05286
 Alpha virt. eigenvalues --    0.07047   0.07974   0.07980   0.11850   0.11906
 Alpha virt. eigenvalues --    0.12865   0.12865   0.15039   0.15041   0.15578

 Mulliken charges:
               1
     1  C   -0.175604
     2  C   -0.196070
     3  C    0.060930
     4  O   -0.434116
     5  C    0.061947
     6  P    0.397579
     7  C    0.126377
     8  C   -0.160545
     9  C   -0.173825
    10  C    0.117563
    11  O   -0.401606
    12  C    0.080461
    13  C   -0.171532
    14  C   -0.175820
    15  C    0.084879
    16  O   -0.420019
    17  H    0.127655
    18  H    0.121321
    19  H    0.140126
    20  H    0.177126
    21  H    0.163457
    22  H    0.182333
    23  H    0.162613
    24  H    0.146034
    25  H    0.158738
 Sum of Mulliken charges =  -0.00000

 Dipole moment (field-independent basis, Debye):
    X=             -2.3082    Y=             -2.9863    Z=              2.6713  Tot=              4.6240
 Quadrupole moment (field-independent basis, Debye-Ang):
   XX=            -92.3147   YY=            -80.4639   ZZ=            -96.8585
   XY=             -1.7636   XZ=             -0.9180   YZ=             -0.4000

 Summary of Natural Population Analysis:

                                       Natural Population
                Natural  -----------------------------------------------
    Atom  No    Charge         Core      Valence    Rydberg      Total
 -----------------------------------------------------------------------
      C    1   -0.32804      1.99908     4.31583    0.01313     6.32804
      C    2   -0.35344      1.99890     4.33681    0.01774     6.35344
      C    3   -0.13809      1.99884     4.10166    0.03759     6.13809
      O    4   -0.48010      1.99974     6.46674    0.01362     8.48010
      C    5    0.07264      1.99905     3.90286    0.02545     5.92736
      P    6    1.01113      9.99757     3.92504    0.06626    13.98887
      C    7   -0.00786      1.99890     3.97306    0.03590     6.00786
      C    8   -0.27993      1.99893     4.26630    0.01470     6.27993
      C    9   -0.31675      1.99910     4.30476    0.01290     6.31675
      C   10    0.16434      1.99905     3.81439    0.02221     5.83566
      O   11   -0.45210      1.99974     6.43339    0.01897     8.45210
      C   12   -0.09161      1.99890     4.05345    0.03927     6.09161
      C   13   -0.30284      1.99892     4.28786    0.01605     6.30284
      C   14   -0.32428      1.99909     4.31201    0.01318     6.32428
      C   15    0.11312      1.99905     3.86267    0.02516     5.88688
      O   16   -0.47015      1.99975     6.45656    0.01385     8.47015
      H   17    0.24021      0.00000     0.75931    0.00048     0.75979
      H   18    0.23691      0.00000     0.76227    0.00081     0.76309
      H   19    0.21690      0.00000     0.78258    0.00053     0.78310
      H   20    0.26615      0.00000     0.73320    0.00065     0.73385
      H   21    0.25669      0.00000     0.74281    0.00051     0.74331
      H   22    0.23494      0.00000     0.76461    0.00045     0.76506
      H   23    0.25913      0.00000     0.73990    0.00098     0.74087
      H   24    0.24887      0.00000     0.75063    0.00050     0.75113
      H   25    0.22417      0.00000     0.77521    0.00061     0.77583
 =======================================================================
   * Total *    0.00000     39.98461    79.62390    0.39148   120.00000

 Normal termination of Gaussian 16 at Sun Aug 23 15:18:33 2020.
