 Gaussian 16, Revision A.03,

 ---------------------------------
 # opt=CalcAll B3LYP/6-31G* scf=qc
 ---------------------------------

 -------------------
 Title Card Required
 -------------------
 Symbolic Z-matrix:
 Charge =  0 Multiplicity = 1

 SCF Done:  E(RB3LYP) =  -814.897470794     a.u. after    7 cycles
 SCF Done:  E(RB3LYP) =  -814.909249956     a.u. after   13 cycles
 SCF Done:  E(RB3LYP) =  -814.911356175     a.u. after    9 cycles
 SCF Done:  E(RB3LYP) =  -814.911834213     a.u. after   11 cycles
 SCF Done:  E(RB3LYP) =  -814.911959752     a.u. after   11 cycles
 SCF Done:  E(RB3LYP) =  -814.911979885     a.u. after    7 cycles
 SCF Done:  E(RB3LYP) =  -814.911985912     a.u. after    5 cycles
 SCF Done:  E(RB3LYP) =  -814.911986853     a.u. after    5 cycles
 SCF Done:  E(RB3LYP) =  -814.911986869     a.u. after    2 cycles
 Optimization completed.
    -- Stationary point found.
 Normal termination of Gaussian 16 at Sun Aug 23 06:40:15 2020.

 ----------------------------------------------------------------------
 # freq B3LYP/6-31G* scf=qc volume NMR pop=NPA density=current Geom=All
 Check Guess=Read
 ----------------------------------------------------------------------

 Structure from the checkpoint file:  "phosphine_2_conf132.chk"
 -------------------
 Title Card Required
 -------------------
 Charge =  0 Multiplicity = 1

 SCF Done:  E(RB3LYP) =  -814.911986869     a.u. after    1 cycles

      1  C    Isotropic =   176.0450   Anisotropy =    19.1502

      2  C    Isotropic =   164.0377   Anisotropy =    16.7571

      3  C    Isotropic =   161.5558   Anisotropy =    19.3412

      4  C    Isotropic =   163.3966   Anisotropy =    26.6959

      5  H    Isotropic =    30.6876   Anisotropy =     3.4683

      6  H    Isotropic =    30.7114   Anisotropy =     6.9751

      7  P    Isotropic =   393.4966   Anisotropy =    42.7206

      8  C    Isotropic =   164.9937   Anisotropy =    34.0646

      9  H    Isotropic =    30.7546   Anisotropy =     6.4986

     10  H    Isotropic =    30.7546   Anisotropy =     6.4986

     11  C    Isotropic =   165.6362   Anisotropy =    19.9494

     12  C    Isotropic =   162.3994   Anisotropy =    22.7159

     13  C    Isotropic =   173.7183   Anisotropy =    24.1093

     14  C    Isotropic =   163.3966   Anisotropy =    26.6952

     15  H    Isotropic =    30.6876   Anisotropy =     3.4679

     16  H    Isotropic =    30.7114   Anisotropy =     6.9753

     17  C    Isotropic =   161.5564   Anisotropy =    19.3410

     18  C    Isotropic =   164.0377   Anisotropy =    16.7572

     19  C    Isotropic =   176.0450   Anisotropy =    19.1503

     20  H    Isotropic =    31.1535   Anisotropy =    10.3090

     21  H    Isotropic =    30.9474   Anisotropy =     6.0691

     22  H    Isotropic =    31.4371   Anisotropy =     8.5008

     23  H    Isotropic =    30.7720   Anisotropy =     6.5308

     24  H    Isotropic =    30.4595   Anisotropy =     9.0499

     25  H    Isotropic =    30.5517   Anisotropy =     6.2498

     26  H    Isotropic =    30.7114   Anisotropy =     6.4359

     27  H    Isotropic =    30.7675   Anisotropy =     5.9846

     28  H    Isotropic =    30.7674   Anisotropy =     5.9838

     29  H    Isotropic =    30.7764   Anisotropy =     6.3392

     30  H    Isotropic =    30.7764   Anisotropy =     6.3390

     31  H    Isotropic =    31.2109   Anisotropy =     7.5799

     32  H    Isotropic =    31.0176   Anisotropy =    10.6036

     33  H    Isotropic =    31.2109   Anisotropy =     7.5798

     34  H    Isotropic =    30.5517   Anisotropy =     6.2503

     35  H    Isotropic =    30.7114   Anisotropy =     6.4358

     36  H    Isotropic =    30.7720   Anisotropy =     6.5308

     37  H    Isotropic =    30.4595   Anisotropy =     9.0498

     38  H    Isotropic =    30.9474   Anisotropy =     6.0691

     39  H    Isotropic =    31.1535   Anisotropy =    10.3090

     40  H    Isotropic =    31.4371   Anisotropy =     8.5008

  Exact polarizability: 173.756   0.000 159.306  -0.000   1.412 128.720
 Approx polarizability: 215.888   0.000 208.933  -0.001   3.990 197.689

                      1                      2                      3
                      A                      A                      A
 Frequencies --     25.9181                34.0337                35.2738
 Red. masses --      3.0692                 2.2413                 3.2571
 Frc consts  --      0.0012                 0.0015                 0.0024
 IR Inten    --      0.0012                 0.0008                 0.0161

                      4                      5                      6
                      A                      A                      A
 Frequencies --     39.5491                54.2318                66.2761
 Red. masses --      2.8860                 1.5757                 2.8688
 Frc consts  --      0.0027                 0.0027                 0.0074
 IR Inten    --      0.0101                 0.0038                 0.0520

                      7                      8                      9
                      A                      A                      A
 Frequencies --     99.3494               116.9702               118.5638
 Red. masses --      2.7397                 2.0967                 2.3781
 Frc consts  --      0.0159                 0.0169                 0.0197
 IR Inten    --      0.0664                 0.0277                 0.0398

                     10                     11                     12
                      A                      A                      A
 Frequencies --    137.7250               165.5766               184.9849
 Red. masses --      2.1920                 1.7364                 1.9807
 Frc consts  --      0.0245                 0.0280                 0.0399
 IR Inten    --      0.1850                 0.1229                 0.7284

                     13                     14                     15
                      A                      A                      A
 Frequencies --    211.1328               218.1977               248.9081
 Red. masses --      1.8040                 1.7197                 1.1724
 Frc consts  --      0.0474                 0.0482                 0.0428
 IR Inten    --      0.0447                 0.1884                 0.0116

                     16                     17                     18
                      A                      A                      A
 Frequencies --    250.4617               260.6035               280.2290
 Red. masses --      2.9966                 1.6909                 1.4496
 Frc consts  --      0.1108                 0.0677                 0.0671
 IR Inten    --      0.0456                 0.1115                 0.1643

                     19                     20                     21
                      A                      A                      A
 Frequencies --    322.8930               334.3567               351.9161
 Red. masses --      2.4700                 3.0539                 4.1246
 Frc consts  --      0.1517                 0.2012                 0.3010
 IR Inten    --      1.3334                 0.1100                 0.2263

                     22                     23                     24
                      A                      A                      A
 Frequencies --    415.2532               424.4519               441.3194
 Red. masses --      2.7441                 2.4098                 2.6287
 Frc consts  --      0.2788                 0.2558                 0.3016
 IR Inten    --      0.1255                 0.7409                 2.8171

                     25                     26                     27
                      A                      A                      A
 Frequencies --    680.5288               698.2085               701.1520
 Red. masses --      3.3560                 1.7277                 1.4066
 Frc consts  --      0.9157                 0.4962                 0.4074
 IR Inten    --      0.0411                 0.0058                11.0753

                     28                     29                     30
                      A                      A                      A
 Frequencies --    735.4564               740.5224               769.0280
 Red. masses --      1.6275                 1.2383                 2.2026
 Frc consts  --      0.5187                 0.4001                 0.7675
 IR Inten    --     15.4233                 4.3480                 6.5902

                     31                     32                     33
                      A                      A                      A
 Frequencies --    774.1237               788.6629               793.5880
 Red. masses --      1.2568                 1.3058                 1.3662
 Frc consts  --      0.4437                 0.4785                 0.5069
 IR Inten    --      0.0256                 3.9837                 2.7085

                     34                     35                     36
                      A                      A                      A
 Frequencies --    869.0344               881.0264               898.8692
 Red. masses --      2.2097                 2.5082                 1.3150
 Frc consts  --      0.9832                 1.1471                 0.6260
 IR Inten    --      0.3485                 1.4048                 0.0804

                     37                     38                     39
                      A                      A                      A
 Frequencies --    903.9872               933.2966               933.6482
 Red. masses --      1.7866                 1.3745                 1.4084
 Frc consts  --      0.8602                 0.7054                 0.7233
 IR Inten    --      1.1670                11.2331                 8.0178

                     40                     41                     42
                      A                      A                      A
 Frequencies --    980.6786               990.8547              1021.8574
 Red. masses --      2.0339                 1.9285                 3.5865
 Frc consts  --      1.1525                 1.1155                 2.2065
 IR Inten    --     13.2214                 0.1447                 2.8152

                     43                     44                     45
                      A                      A                      A
 Frequencies --   1054.6691              1063.3341              1071.3865
 Red. masses --      1.2643                 2.5287                 1.6301
 Frc consts  --      0.8286                 1.6846                 1.1024
 IR Inten    --      0.0544                 0.4208                 2.4303

                     46                     47                     48
                      A                      A                      A
 Frequencies --   1083.2545              1085.3945              1086.7565
 Red. masses --      2.1986                 1.2067                 1.7802
 Frc consts  --      1.5200                 0.8376                 1.2387
 IR Inten    --      0.0084                 6.1212                 0.1500

                     49                     50                     51
                      A                      A                      A
 Frequencies --   1112.1912              1122.8379              1128.6702
 Red. masses --      1.6264                 1.9953                 1.8039
 Frc consts  --      1.1853                 1.4821                 1.3539
 IR Inten    --      4.7804                12.9193                 3.3488

                     52                     53                     54
                      A                      A                      A
 Frequencies --   1221.4553              1226.3791              1241.9195
 Red. masses --      1.4696                 1.4751                 1.4535
 Frc consts  --      1.2919                 1.3071                 1.3208
 IR Inten    --     12.0700                 1.5029                 0.2751

                     55                     56                     57
                      A                      A                      A
 Frequencies --   1251.1581              1253.0866              1271.5885
 Red. masses --      1.3534                 1.4249                 1.3107
 Frc consts  --      1.2482                 1.3183                 1.2486
 IR Inten    --      3.4497                 1.2779                 0.1159

                     58                     59                     60
                      A                      A                      A
 Frequencies --   1315.0039              1319.7943              1324.2988
 Red. masses --      1.2040                 1.1980                 1.1891
 Frc consts  --      1.2267                 1.2294                 1.2287
 IR Inten    --      1.5075                 0.3518                 2.7531

                     61                     62                     63
                      A                      A                      A
 Frequencies --   1336.2437              1340.2091              1349.9410
 Red. masses --      1.1371                 1.1388                 1.0622
 Frc consts  --      1.1962                 1.2052                 1.1405
 IR Inten    --      1.2015                 0.0408                 0.0012

                     64                     65                     66
                      A                      A                      A
 Frequencies --   1352.1757              1393.4668              1395.0634
 Red. masses --      1.3520                 1.4344                 1.4394
 Frc consts  --      1.4564                 1.6410                 1.6506
 IR Inten    --      3.3105                 0.2363                 1.9207

                     67                     68                     69
                      A                      A                      A
 Frequencies --   1398.2688              1400.0171              1408.8974
 Red. masses --      1.3258                 1.3421                 1.4816
 Frc consts  --      1.5273                 1.5498                 1.7328
 IR Inten    --     17.1666                 6.1831                 2.1600

                     70                     71                     72
                      A                      A                      A
 Frequencies --   1440.1809              1442.8106              1442.9759
 Red. masses --      1.2421                 1.2605                 1.2615
 Frc consts  --      1.5179                 1.5460                 1.5475
 IR Inten    --      1.7681                 2.1194                 9.6830

                     73                     74                     75
                      A                      A                      A
 Frequencies --   1492.9623              1495.0346              1502.5553
 Red. masses --      1.0836                 1.0847                 1.0877
 Frc consts  --      1.4231                 1.4285                 1.4469
 IR Inten    --     10.0700                 0.2659                 4.4752

                     76                     77                     78
                      A                      A                      A
 Frequencies --   1513.2771              1516.8461              1517.3563
 Red. masses --      1.0755                 1.0695                 1.0677
 Frc consts  --      1.4511                 1.4498                 1.4484
 IR Inten    --      1.0482                 0.3372                 1.9472

                     79                     80                     81
                      A                      A                      A
 Frequencies --   1520.4367              1521.1218              1525.9314
 Red. masses --      1.0809                 1.0753                 1.0694
 Frc consts  --      1.4723                 1.4659                 1.4672
 IR Inten    --      1.6771                 1.1748                 0.5051

                     82                     83                     84
                      A                      A                      A
 Frequencies --   1529.5901              1532.5642              1532.8953
 Red. masses --      1.0411                 1.0547                 1.0564
 Frc consts  --      1.4352                 1.4595                 1.4626
 IR Inten    --      5.8633                 2.1425                 7.4757

                     85                     86                     87
                      A                      A                      A
 Frequencies --   1538.2648              1538.4506              1540.0806
 Red. masses --      1.0604                 1.0604                 1.0820
 Frc consts  --      1.4784                 1.4788                 1.5121
 IR Inten    --      2.4689                 8.4414                 2.3665

                     88                     89                     90
                      A                      A                      A
 Frequencies --   3022.5042              3022.6838              3023.7305
 Red. masses --      1.0593                 1.0593                 1.0593
 Frc consts  --      5.7017                 5.7021                 5.7062
 IR Inten    --      2.6132                11.1812                17.9422

                     91                     92                     93
                      A                      A                      A
 Frequencies --   3026.5705              3026.8716              3029.9769
 Red. masses --      1.0632                 1.0631                 1.0608
 Frc consts  --      5.7382                 5.7385                 5.7382
 IR Inten    --     16.2987                26.3268                 7.9499

                     94                     95                     96
                      A                      A                      A
 Frequencies --   3030.5890              3032.2375              3038.7107
 Red. masses --      1.0626                 1.0602                 1.0518
 Frc consts  --      5.7500                 5.7435                 5.7221
 IR Inten    --      0.0011                 6.4904                41.9530

                     97                     98                     99
                      A                      A                      A
 Frequencies --   3041.9347              3044.1748              3044.3504
 Red. masses --      1.0437                 1.0382                 1.0380
 Frc consts  --      5.6899                 5.6685                 5.6683
 IR Inten    --     81.0440                 1.6524                53.4071

                    100                    101                    102
                      A                      A                      A
 Frequencies --   3048.0692              3055.9388              3057.3812
 Red. masses --      1.0997                 1.0977                 1.0964
 Frc consts  --      6.0196                 6.0397                 6.0383
 IR Inten    --      0.4908                14.4997                27.0988

                    103                    104                    105
                      A                      A                      A
 Frequencies --   3060.3162              3061.4652              3063.0339
 Red. masses --      1.1009                 1.1016                 1.1022
 Frc consts  --      6.0749                 6.0833                 6.0928
 IR Inten    --     19.2661                25.2630                 1.7133

                    106                    107                    108
                      A                      A                      A
 Frequencies --   3078.4190              3083.7636              3084.7890
 Red. masses --      1.1038                 1.1025                 1.1045
 Frc consts  --      6.1632                 6.1774                 6.1923
 IR Inten    --     38.9423               106.0657                13.3947

                    109                    110                    111
                      A                      A                      A
 Frequencies --   3105.9826              3108.2659              3108.3534
 Red. masses --      1.1029                 1.1018                 1.1018
 Frc consts  --      6.2690                 6.2716                 6.2719
 IR Inten    --     66.5367                 3.5269                85.1150

                    112                    113                    114
                      A                      A                      A
 Frequencies --   3110.5733              3114.5369              3114.7762
 Red. masses --      1.1018                 1.1018                 1.1017
 Frc consts  --      6.2813                 6.2970                 6.2976
 IR Inten    --     44.5806               103.9410                 6.6558

 - Thermochemistry -
 -------------------
 Temperature   298.150 Kelvin.  Pressure   1.00000 Atm.
 Atom     1 has atomic number  6 and mass  12.00000

 Molecular mass:   202.18504 amu.
 Principal axes and moments of inertia in atomic units:
                           1         2         3
     Eigenvalues --  3500.503244981.123437586.62649
           X            1.00000  -0.00000  -0.00000
           Y            0.00000   0.99998   0.00565
           Z            0.00000  -0.00565   0.99998
 This molecule is an asymmetric top.
 Rotational symmetry number  1.
 Warning -- assumption of classical behavior for rotation
           may cause significant error
 Rotational temperatures (Kelvin)      0.02474     0.01739     0.01142
 Rotational constants (GHZ):           0.51557     0.36232     0.23788
 Zero-point vibrational energy     976891.4 (Joules/Mol)
                                  233.48266 (Kcal/Mol)
 Warning -- explicit consideration of  24 degrees of freedom as
           vibrations may cause significant error
 Vibrational temperatures:     37.29    48.97    50.75    56.90    78.03
          (Kelvin)             95.36   142.94   168.29   170.59   198.16
                              238.23   266.15   303.77   313.94   358.12
                              360.36   374.95   403.19   464.57   481.06
                              506.33   597.46   610.69   634.96   979.13
                             1004.57  1008.80  1058.16  1065.45  1106.46
                             1113.79  1134.71  1141.80  1250.35  1267.60
                             1293.27  1300.64  1342.81  1343.31  1410.98
                             1425.62  1470.22  1517.43  1529.90  1541.49
                             1558.56  1561.64  1563.60  1600.20  1615.51
                             1623.90  1757.40  1764.49  1786.85  1800.14
                             1802.91  1829.53  1892.00  1898.89  1905.37
                             1922.56  1928.26  1942.26  1945.48  2004.89
                             2007.19  2011.80  2014.31  2027.09  2072.10
                             2075.88  2076.12  2148.04  2151.02  2161.84
                             2177.27  2182.40  2183.14  2187.57  2188.56
                             2195.47  2200.74  2205.02  2205.49  2213.22
                             2213.49  2215.83  4348.71  4348.97  4350.47
                             4354.56  4354.99  4359.46  4360.34  4362.71
                             4372.03  4376.67  4379.89  4380.14  4385.49
                             4396.81  4398.89  4403.11  4404.77  4407.02
                             4429.16  4436.85  4438.32  4468.82  4472.10
                             4472.23  4475.42  4481.12  4481.47

 Zero-point correction=                           0.372078 (Hartree/Particle)
 Thermal correction to Energy=                    0.390794
 Thermal correction to Enthalpy=                  0.391738
 Thermal correction to Gibbs Free Energy=         0.322602
 Sum of electronic and zero-point Energies=           -814.539909
 Sum of electronic and thermal Energies=              -814.521193
 Sum of electronic and thermal Enthalpies=            -814.520249
 Sum of electronic and thermal Free Energies=         -814.589385

                     E (Thermal)             CV                S
                      KCal/Mol        Cal/Mol-Kelvin    Cal/Mol-Kelvin
 Total                  245.227             66.323            145.508
 Electronic               0.000              0.000              0.000
 Translational            0.889              2.981             41.817
 Rotational               0.889              2.981             33.247
 Vibrational            243.449             60.361             70.444
 Vibration     1          0.593              1.985              6.120
 Vibration     2          0.594              1.983              5.579
 Vibration     3          0.594              1.982              5.508
 Vibration     4          0.594              1.981              5.282
 Vibration     5          0.596              1.976              4.657
 Vibration     6          0.598              1.970              4.261
 Vibration     7          0.604              1.950              3.467
 Vibration     8          0.608              1.935              3.150
 Vibration     9          0.609              1.934              3.124
 Vibration    10          0.614              1.916              2.835
 Vibration    11          0.624              1.885              2.485
 Vibration    12          0.631              1.860              2.278
 Vibration    13          0.643              1.824              2.034
 Vibration    14          0.646              1.813              1.974
 Vibration    15          0.662              1.765              1.738
 Vibration    16          0.663              1.762              1.727
 Vibration    17          0.669              1.745              1.658
 Vibration    18          0.680              1.710              1.532
 Vibration    19          0.708              1.630              1.295
 Vibration    20          0.716              1.607              1.239
 Vibration    21          0.728              1.571              1.158
 Vibration    22          0.779              1.437              0.908
 Vibration    23          0.786              1.417              0.877
 Vibration    24          0.801              1.380              0.822

 Optimization completed.
    -- Stationary point found.
 Normal termination of Gaussian 16 at Sun Aug 23 06:47:54 2020.
 Gaussian 16:  ES64L-G16RevA.03 25-Dec-2016

 ----------------------------------------------------------------------
 # TD(NStates=10, Root=1) B3LYP/6-31G* scf=qc volume pop=NPA density=cu
 rrent Geom=AllCheck Guess=Read
 ----------------------------------------------------------------------

 Structure from the checkpoint file:  "phosphine_2_conf133.chk"
 -------------------
 Title Card Required
 -------------------
 Charge =  0 Multiplicity = 1

                         Standard orientation:
 ---------------------------------------------------------------------
 Center     Atomic      Atomic             Coordinates (Angstroms)
 Number     Number       Type             X           Y           Z
 ---------------------------------------------------------------------
      1          6           0        4.153671   -2.485914   -0.763057
      2          6           0        3.990887   -0.999006   -0.427313
      3          6           0        2.804605   -0.680274    0.500844
      4          6           0        1.426024   -0.959956   -0.118432
      5          1           0        1.310297   -0.394345   -1.053519
      6          1           0        1.343362   -2.021813   -0.384246
      7         15           0        0.000112   -0.627351    1.058148
      8          6           0       -0.000091    1.252414    1.169419
      9          1           0       -0.872032    1.514210    1.784633
     10          1           0        0.871877    1.514411    1.784508
     11          6           0       -0.000287    2.093570   -0.114684
     12          6           0       -0.000459    3.604899    0.163814
     13          6           0       -0.000701    4.452774   -1.112435
     14          6           0       -1.425737   -0.960256   -0.118422
     15          1           0       -1.310086   -0.394698   -1.053552
     16          1           0       -1.342918   -2.022121   -0.384157
     17          6           0       -2.804367   -0.680727    0.500812
     18          6           0       -3.990589   -0.999734   -0.427329
     19          6           0       -4.153134   -2.486699   -0.762933
     20          1           0        5.043160   -2.654086   -1.380965
     21          1           0        3.292619   -2.877978   -1.315983
     22          1           0        4.263527   -3.086026    0.148951
     23          1           0        3.887330   -0.422212   -1.357671
     24          1           0        4.912028   -0.639876    0.051601
     25          1           0        2.865289    0.378400    0.787817
     26          1           0        2.908559   -1.254643    1.432254
     27          1           0       -0.878441    1.845780   -0.726463
     28          1           0        0.877837    1.846000   -0.726595
     29          1           0        0.877580    3.860068    0.773974
     30          1           0       -0.878444    3.859833    0.774150
     31          1           0        0.884031    4.245095   -1.726979
     32          1           0       -0.000823    5.524117   -0.881126
     33          1           0       -0.885502    4.244855   -1.726799
     34          1           0       -2.865219    0.377966    0.787681
     35          1           0       -2.908245   -1.255022    1.432277
     36          1           0       -3.887110   -0.423011   -1.357740
     37          1           0       -4.911792   -0.640702    0.051539
     38          1           0       -3.292010   -2.878681   -1.315806
     39          1           0       -5.042585   -2.655071   -1.380841
     40          1           0       -4.262911   -3.086741    0.149130
 ---------------------------------------------------------------------

 SCF Done:  E(RB3LYP) =  -814.911986869     a.u. after    1 cycles

 Excitation energies and oscillator strengths:

 Excited State   1:      Singlet-A      6.6091 eV  187.60 nm  f=0.1416  <S**2>=0.000
      57 -> 58         0.69883
 This state for optimization and/or second-order correction.
 Total Energy, E(TD-HF/TD-DFT) =  -814.669105382
 Copying the excited state density for this state as the 1-particle RhoCI density.

 Excited State   2:      Singlet-A      6.7151 eV  184.64 nm  f=0.0636  <S**2>=0.000
      57 -> 59         0.69025
      57 -> 60         0.11809

 Excited State   3:      Singlet-A      6.8356 eV  181.38 nm  f=0.0479  <S**2>=0.000
      57 -> 59        -0.11138
      57 -> 60         0.69064

 Excited State   4:      Singlet-A      7.7635 eV  159.70 nm  f=0.0077  <S**2>=0.000
      57 -> 61         0.61072
      57 -> 63         0.27487
      57 -> 65        -0.18887

 Excited State   5:      Singlet-A      7.8218 eV  158.51 nm  f=0.0016  <S**2>=0.000
      57 -> 62         0.64452
      57 -> 64         0.27231

 Excited State   6:      Singlet-A      7.9289 eV  156.37 nm  f=0.0102  <S**2>=0.000
      57 -> 61        -0.24707
      57 -> 63         0.64101
      57 -> 65         0.10849

 Excited State   7:      Singlet-A      8.1230 eV  152.63 nm  f=0.0005  <S**2>=0.000
      55 -> 58        -0.11859
      57 -> 62        -0.25626
      57 -> 64         0.63306

 Excited State   8:      Singlet-A      8.1616 eV  151.91 nm  f=0.0001  <S**2>=0.000
      57 -> 61         0.21485
      57 -> 65         0.66137

 Excited State   9:      Singlet-A      8.2316 eV  150.62 nm  f=0.0727  <S**2>=0.000
      57 -> 61        -0.11619
      57 -> 66         0.67626

 Excited State  10:      Singlet-A      8.4115 eV  147.40 nm  f=0.0091  <S**2>=0.000
      55 -> 58        -0.47008
      56 -> 59         0.47122
      56 -> 60        -0.20643

 The electronic state is 1-A.
 Alpha  occ. eigenvalues --  -77.06282 -10.18094 -10.18027 -10.18017 -10.18013
 Alpha  occ. eigenvalues --  -10.18013 -10.17913 -10.17913 -10.17888 -10.17888
 Alpha  occ. eigenvalues --  -10.17340 -10.17131 -10.17131  -6.53060  -4.69322
 Alpha  occ. eigenvalues --   -4.69305  -4.68804  -0.80037  -0.78916  -0.78868
 Alpha  occ. eigenvalues --   -0.74185  -0.71417  -0.71311  -0.65793  -0.63056
 Alpha  occ. eigenvalues --   -0.63034  -0.58001  -0.57310  -0.56079  -0.51800
 Alpha  occ. eigenvalues --   -0.47376  -0.46165  -0.45191  -0.44301  -0.43753
 Alpha  occ. eigenvalues --   -0.42396  -0.41652  -0.41620  -0.41211  -0.39436
 Alpha  occ. eigenvalues --   -0.38505  -0.37870  -0.36771  -0.36655  -0.35487
 Alpha  occ. eigenvalues --   -0.34841  -0.34638  -0.33856  -0.33489  -0.32748
 Alpha  occ. eigenvalues --   -0.32663  -0.32571  -0.31994  -0.31912  -0.29110
 Alpha  occ. eigenvalues --   -0.28484  -0.21153
 Alpha virt. eigenvalues --    0.05917   0.06375   0.07185   0.10207   0.10532
 Alpha virt. eigenvalues --    0.10895   0.11448   0.11537   0.12048   0.13428
 Alpha virt. eigenvalues --    0.14228   0.14601   0.15665   0.15966   0.16299

 Mulliken charges:
               1
     1  C   -0.430765
     2  C   -0.243652
     3  C   -0.216196
     4  C   -0.408561
     5  H    0.148966
     6  H    0.144503
     7  P    0.298858
     8  C   -0.423087
     9  H    0.180385
    10  H    0.180382
    11  C   -0.258193
    12  C   -0.251123
    13  C   -0.444501
    14  C   -0.408531
    15  H    0.148932
    16  H    0.144480
    17  C   -0.216171
    18  C   -0.243641
    19  C   -0.430757
    20  H    0.131446
    21  H    0.129051
    22  H    0.135727
    23  H    0.118374
    24  H    0.120719
    25  H    0.110326
    26  H    0.112423
    27  H    0.141177
    28  H    0.141190
    29  H    0.140304
    30  H    0.140307
    31  H    0.148837
    32  H    0.151992
    33  H    0.148841
    34  H    0.110296
    35  H    0.112396
    36  H    0.118363
    37  H    0.120707
    38  H    0.129041
    39  H    0.131435
    40  H    0.135721
 Sum of Mulliken charges =   0.00000

 Dipole moment (field-independent basis, Debye):
    X=              0.0012    Y=              2.0873    Z=             -0.1912  Tot=              2.0960
 Quadrupole moment (field-independent basis, Debye-Ang):
   XX=           -102.5773   YY=            -92.7516   ZZ=            -96.9083
   XY=             -0.0027   XZ=             -0.0005   YZ=              0.3209

 Summary of Natural Population Analysis:

                                       Natural Population
                Natural  -----------------------------------------------
    Atom  No    Charge         Core      Valence    Rydberg      Total
 -----------------------------------------------------------------------
      C    1   -0.67761      1.99946     4.67018    0.00797     6.67761
      C    2   -0.45401      1.99935     4.44328    0.01138     6.45401
      C    3   -0.46246      1.99933     4.45008    0.01306     6.46246
      C    4   -0.83708      1.99931     4.81455    0.02322     6.83708
      H    5    0.24265      0.00000     0.75018    0.00717     0.75735
      H    6    0.23836      0.00000     0.75654    0.00510     0.76164
      P    7    1.02243      9.99769     3.86824    0.11164    13.97757
      C    8   -0.75426      1.99931     4.73995    0.01500     6.75426
      H    9    0.26254      0.00000     0.73587    0.00159     0.73746
      H   10    0.26253      0.00000     0.73588    0.00159     0.73747
      C   11   -0.45319      1.99928     4.44144    0.01247     6.45319
      C   12   -0.44889      1.99934     4.43872    0.01083     6.44889
      C   13   -0.67314      1.99945     4.66617    0.00752     6.67314
      C   14   -0.83710      1.99931     4.81457    0.02323     6.83710
      H   15    0.24263      0.00000     0.75020    0.00717     0.75737
      H   16    0.23835      0.00000     0.75655    0.00510     0.76165
      C   17   -0.46246      1.99933     4.45008    0.01305     6.46246
      C   18   -0.45401      1.99935     4.44328    0.01138     6.45401
      C   19   -0.67761      1.99946     4.67018    0.00797     6.67761
      H   20    0.22428      0.00000     0.77306    0.00266     0.77572
      H   21    0.21425      0.00000     0.78053    0.00521     0.78575
      H   22    0.22097      0.00000     0.77657    0.00246     0.77903
      H   23    0.21995      0.00000     0.77554    0.00451     0.78005
      H   24    0.22504      0.00000     0.77090    0.00406     0.77496
      H   25    0.21666      0.00000     0.77791    0.00544     0.78334
      H   26    0.21699      0.00000     0.77322    0.00979     0.78301
      H   27    0.22424      0.00000     0.76965    0.00610     0.77576
      H   28    0.22426      0.00000     0.76965    0.00609     0.77574
      H   29    0.23130      0.00000     0.76707    0.00162     0.76870
      H   30    0.23130      0.00000     0.76707    0.00162     0.76870
      H   31    0.22827      0.00000     0.77065    0.00108     0.77173
      H   32    0.23850      0.00000     0.76077    0.00074     0.76150
      H   33    0.22828      0.00000     0.77065    0.00108     0.77172
      H   34    0.21664      0.00000     0.77792    0.00544     0.78336
      H   35    0.21697      0.00000     0.77323    0.00980     0.78303
      H   36    0.21994      0.00000     0.77554    0.00452     0.78006
      H   37    0.22503      0.00000     0.77091    0.00407     0.77497
      H   38    0.21425      0.00000     0.78054    0.00521     0.78575
      H   39    0.22427      0.00000     0.77307    0.00266     0.77573
      H   40    0.22097      0.00000     0.77657    0.00246     0.77903
 =======================================================================
   * Total *   -0.00000     33.98995    79.62698    0.38307   114.00000

 Normal termination of Gaussian 16 at Sun Aug 23 06:56:28 2020.
