 Gaussian 16, Revision A.03,

 ---------------------------------
 # opt=CalcAll B3LYP/6-31G* scf=qc
 ---------------------------------

 -------------------
 Title Card Required
 -------------------
 Symbolic Z-matrix:
 Charge =  0 Multiplicity = 1

 SCF Done:  E(RB3LYP) =  -844.558698636     a.u. after    8 cycles
 SCF Done:  E(RB3LYP) =  -844.563436683     a.u. after   15 cycles
 SCF Done:  E(RB3LYP) =  -844.564065872     a.u. after   17 cycles
 SCF Done:  E(RB3LYP) =  -844.563911659     a.u. after   17 cycles
 SCF Done:  E(RB3LYP) =  -844.564324348     a.u. after   15 cycles
 SCF Done:  E(RB3LYP) =  -844.564328961     a.u. after    7 cycles
 SCF Done:  E(RB3LYP) =  -844.564327887     a.u. after    3 cycles
 SCF Done:  E(RB3LYP) =  -844.564329556     a.u. after    5 cycles
 SCF Done:  E(RB3LYP) =  -844.564329554     a.u. after    2 cycles
 Optimization completed.
    -- Stationary point found.
 Normal termination of Gaussian 16 at Sun Aug 23 12:14:01 2020.

 ----------------------------------------------------------------------
 # freq B3LYP/6-31G* scf=qc volume NMR pop=NPA density=current Geom=All
 Check Guess=Read
 ----------------------------------------------------------------------

 Structure from the checkpoint file:  "phosphine_3_conf252.chk"
 -------------------
 Title Card Required
 -------------------
 Charge =  0 Multiplicity = 1

 SCF Done:  E(RB3LYP) =  -844.564329554     a.u. after    1 cycles

      1  C    Isotropic =   173.0273   Anisotropy =    19.3267

      2  H    Isotropic =    30.7059   Anisotropy =     7.2631

      3  H    Isotropic =    30.7452   Anisotropy =    10.5231

      4  H    Isotropic =    31.0016   Anisotropy =     8.5253

      5  P    Isotropic =   385.0844   Anisotropy =    60.2170

      6  C    Isotropic =    52.7841   Anisotropy =   183.2192

      7  C    Isotropic =    67.9836   Anisotropy =   167.4349

      8  C    Isotropic =    68.8485   Anisotropy =   164.0555

      9  C    Isotropic =    69.4149   Anisotropy =   165.2688

     10  C    Isotropic =    68.8099   Anisotropy =   164.5510

     11  C    Isotropic =    62.6043   Anisotropy =   166.8339

     12  C    Isotropic =    51.8692   Anisotropy =   182.8502

     13  C    Isotropic =    60.5071   Anisotropy =   159.8372

     14  C    Isotropic =    69.1696   Anisotropy =   163.2072

     15  C    Isotropic =    67.5053   Anisotropy =   168.3008

     16  C    Isotropic =    68.2794   Anisotropy =   164.2388

     17  C    Isotropic =    62.8732   Anisotropy =   171.1515

     18  H    Isotropic =    24.8797   Anisotropy =     9.9824

     19  H    Isotropic =    24.9265   Anisotropy =     4.8984

     20  H    Isotropic =    25.0796   Anisotropy =     3.7302

     21  H    Isotropic =    25.0472   Anisotropy =     4.9719

     22  H    Isotropic =    24.9782   Anisotropy =    10.0502

     23  H    Isotropic =    24.4816   Anisotropy =     7.9889

     24  H    Isotropic =    24.9616   Anisotropy =     4.4622

     25  H    Isotropic =    25.0153   Anisotropy =     3.8947

     26  H    Isotropic =    25.0795   Anisotropy =     5.9090

     27  H    Isotropic =    25.1716   Anisotropy =    11.3360

  Exact polarizability: 201.356  -1.864 138.242  20.882  -1.676 117.946
 Approx polarizability: 285.384  -3.898 225.333  48.289  -5.086 209.316

                      1                      2                      3
                      A                      A                      A
 Frequencies --     19.6795                29.9752                55.9364
 Red. masses --      3.7893                 3.8337                 5.0668
 Frc consts  --      0.0009                 0.0020                 0.0093
 IR Inten    --      0.2497                 0.0668                 0.0709

                      4                      5                      6
                      A                      A                      A
 Frequencies --    117.5978               178.5485               186.9100
 Red. masses --      3.3695                 3.4614                 3.6217
 Frc consts  --      0.0275                 0.0650                 0.0745
 IR Inten    --      0.5133                 0.7293                 0.2039

                      7                      8                      9
                      A                      A                      A
 Frequencies --    233.3359               246.4035               267.1394
 Red. masses --      1.8310                 1.6575                 3.6667
 Frc consts  --      0.0587                 0.0593                 0.1542
 IR Inten    --      0.4884                 0.3055                 0.1576

                     10                     11                     12
                      A                      A                      A
 Frequencies --    323.2110               396.5671               408.1578
 Red. masses --      4.4978                 5.9068                 3.1699
 Frc consts  --      0.2768                 0.5473                 0.3111
 IR Inten    --      2.2789                 2.7508                 2.8924

                     13                     14                     15
                      A                      A                      A
 Frequencies --    412.6987               419.7759               488.2665
 Red. masses --      3.0647                 6.9742                 3.5147
 Frc consts  --      0.3075                 0.7241                 0.4937
 IR Inten    --      0.6206                 8.2508                10.4561

                     16                     17                     18
                      A                      A                      A
 Frequencies --    515.9473               632.6630               633.0545
 Red. masses --      3.9375                 6.4093                 6.4012
 Frc consts  --      0.6176                 1.5115                 1.5114
 IR Inten    --     12.4288                 0.1769                 0.0922

                     19                     20                     21
                      A                      A                      A
 Frequencies --    674.2487               702.6899               705.0895
 Red. masses --      5.3393                 6.1935                 4.9213
 Frc consts  --      1.4301                 1.8018                 1.4415
 IR Inten    --      8.3386                 0.9822                 3.2584

                     22                     23                     24
                      A                      A                      A
 Frequencies --    712.0478               713.7165               757.4326
 Red. masses --      2.2701                 2.0653                 1.5778
 Frc consts  --      0.6781                 0.6199                 0.5333
 IR Inten    --     20.8306                26.9362                35.5681

                     25                     26                     27
                      A                      A                      A
 Frequencies --    763.0368               861.1815               867.3827
 Red. masses --      1.7189                 1.2514                 1.2452
 Frc consts  --      0.5897                 0.5468                 0.5520
 IR Inten    --     13.6458                 0.1858                 0.0194

                     28                     29                     30
                      A                      A                      A
 Frequencies --    910.2618               919.8719               922.6453
 Red. masses --      1.3086                 1.2937                 1.3544
 Frc consts  --      0.6388                 0.6449                 0.6793
 IR Inten    --     24.9621                28.3873                 1.4215

                     31                     32                     33
                      A                      A                      A
 Frequencies --    936.7052               969.7277               977.1923
 Red. masses --      1.3619                 1.3597                 1.3601
 Frc consts  --      0.7040                 0.7534                 0.7652
 IR Inten    --      4.6212                 0.0628                 0.1024

                     34                     35                     36
                      A                      A                      A
 Frequencies --    996.8350              1001.2395              1015.2365
 Red. masses --      1.2506                 1.2591                 6.2349
 Frc consts  --      0.7322                 0.7437                 3.7863
 IR Inten    --      0.1420                 0.0538                 1.2328

                     37                     38                     39
                      A                      A                      A
 Frequencies --   1015.9833              1052.1449              1054.4467
 Red. masses --      6.2491                 3.2218                 3.1932
 Frc consts  --      3.8005                 2.1014                 2.0918
 IR Inten    --      2.5447                 1.0740                 1.1869

                     40                     41                     42
                      A                      A                      A
 Frequencies --   1106.2711              1112.2028              1113.0507
 Red. masses --      1.7289                 1.7330                 2.4351
 Frc consts  --      1.2466                 1.2630                 1.7774
 IR Inten    --      1.6942                 2.4039                13.3349

                     43                     44                     45
                      A                      A                      A
 Frequencies --   1117.9862              1193.4830              1194.2046
 Red. masses --      2.5286                 1.1027                 1.0987
 Frc consts  --      1.8621                 0.9254                 0.9232
 IR Inten    --      2.1504                 0.0064                 0.0647

                     46                     47                     48
                      A                      A                      A
 Frequencies --   1216.9020              1223.4336              1323.7550
 Red. masses --      1.1444                 1.1502                 3.2574
 Frc consts  --      0.9985                 1.0143                 3.3630
 IR Inten    --      3.9175                 0.6687                 2.3622

                     49                     50                     51
                      A                      A                      A
 Frequencies --   1331.6703              1351.3914              1363.1577
 Red. masses --      3.3531                 1.2959                 1.7088
 Frc consts  --      3.5034                 1.3944                 1.8708
 IR Inten    --      2.8855                 2.1917                 1.4907

                     52                     53                     54
                      A                      A                      A
 Frequencies --   1371.5849              1479.5025              1482.4664
 Red. masses --      1.5139                 2.0991                 2.0753
 Frc consts  --      1.6780                 2.7071                 2.6872
 IR Inten    --      2.1513                12.2447                 5.4954

                     55                     56                     57
                      A                      A                      A
 Frequencies --   1501.1066              1502.2099              1530.8725
 Red. masses --      1.0620                 1.0627                 2.0236
 Frc consts  --      1.4100                 1.4129                 2.7941
 IR Inten    --      4.2214                16.6838                 4.9296

                     58                     59                     60
                      A                      A                      A
 Frequencies --   1534.8439              1630.0417              1632.4716
 Red. masses --      1.9732                 5.0204                 5.1793
 Frc consts  --      2.7387                 7.8594                 8.1323
 IR Inten    --      6.4916                 1.1124                 0.2827

                     61                     62                     63
                      A                      A                      A
 Frequencies --   1646.7289              1649.4842              3049.4692
 Red. masses --      5.3166                 5.2603                 1.0329
 Frc consts  --      8.4943                 8.4324                 5.6592
 IR Inten    --      1.7897                 3.4215                12.5529

                     64                     65                     66
                      A                      A                      A
 Frequencies --   3131.2900              3138.0885              3174.8563
 Red. masses --      1.1045                 1.1020                 1.0855
 Frc consts  --      6.3804                 6.3940                 6.4465
 IR Inten    --     12.2641                 8.6843                 3.7912

                     67                     68                     69
                      A                      A                      A
 Frequencies --   3176.3228              3181.6116              3182.0181
 Red. masses --      1.0847                 1.0871                 1.0872
 Frc consts  --      6.4480                 6.4835                 6.4859
 IR Inten    --      1.4514                 0.5330                 0.2218

                     70                     71                     72
                      A                      A                      A
 Frequencies --   3190.9696              3192.1118              3198.2070
 Red. masses --      1.0907                 1.0916                 1.0939
 Frc consts  --      6.5432                 6.5537                 6.5926
 IR Inten    --      9.6537                21.0428                33.3774

                     73                     74                     75
                      A                      A                      A
 Frequencies --   3203.7131              3207.1094              3210.6115
 Red. masses --      1.0936                 1.0979                 1.0954
 Frc consts  --      6.6135                 6.6536                 6.6527
 IR Inten    --     34.2105                31.3377                18.4723

 - Thermochemistry -
 -------------------
 Temperature   298.150 Kelvin.  Pressure   1.00000 Atm.
 Atom     1 has atomic number  6 and mass  12.00000

 Molecular mass:   200.07549 amu.
 Principal axes and moments of inertia in atomic units:
                           1         2         3
     Eigenvalues --  1569.977884673.423355299.00320
           X            0.99999  -0.00071   0.00536
           Y            0.00047   0.99898   0.04507
           Z           -0.00538  -0.04507   0.99897
 This molecule is an asymmetric top.
 Rotational symmetry number  1.
 Warning -- assumption of classical behavior for rotation
           may cause significant error
 Rotational temperatures (Kelvin)      0.05517     0.01853     0.01635
 Rotational constants (GHZ):           1.14953     0.38617     0.34058
 Zero-point vibrational energy     579831.1 (Joules/Mol)
                                  138.58295 (Kcal/Mol)
 Warning -- explicit consideration of  16 degrees of freedom as
           vibrations may cause significant error
 Vibrational temperatures:     28.31    43.13    80.48   169.20   256.89
          (Kelvin)            268.92   335.72   354.52   384.35   465.03
                              570.57   587.25   593.78   603.96   702.51
                              742.33   910.26   910.82   970.09  1011.01
                             1014.47  1024.48  1026.88  1089.78  1097.84
                             1239.05  1247.97  1309.66  1323.49  1327.48
                             1347.71  1395.22  1405.96  1434.22  1440.56
                             1460.70  1461.77  1513.80  1517.11  1591.68
                             1600.21  1601.43  1608.53  1717.16  1718.19
                             1750.85  1760.25  1904.59  1915.98  1944.35
                             1961.28  1973.40  2128.67  2132.94  2159.76
                             2161.34  2202.58  2208.30  2345.27  2348.76
                             2369.28  2373.24  4387.51  4505.23  4515.01
                             4567.91  4570.02  4577.63  4578.21  4591.09
                             4592.74  4601.51  4609.43  4614.32  4619.35

 Zero-point correction=                           0.220846 (Hartree/Particle)
 Thermal correction to Energy=                    0.233542
 Thermal correction to Enthalpy=                  0.234486
 Thermal correction to Gibbs Free Energy=         0.179772
 Sum of electronic and zero-point Energies=           -844.343484
 Sum of electronic and thermal Energies=              -844.330788
 Sum of electronic and thermal Enthalpies=            -844.329843
 Sum of electronic and thermal Free Energies=         -844.384558

                     E (Thermal)             CV                S
                      KCal/Mol        Cal/Mol-Kelvin    Cal/Mol-Kelvin
 Total                  146.550             49.332            115.156
 Electronic               0.000              0.000              0.000
 Translational            0.889              2.981             41.785
 Rotational               0.889              2.981             32.031
 Vibrational            144.772             43.370             41.340
 Vibration     1          0.593              1.986              6.666
 Vibration     2          0.594              1.984              5.831
 Vibration     3          0.596              1.975              4.596
 Vibration     4          0.608              1.935              3.139
 Vibration     5          0.629              1.869              2.344
 Vibration     6          0.632              1.858              2.258
 Vibration     7          0.654              1.790              1.853
 Vibration     8          0.661              1.769              1.756
 Vibration     9          0.672              1.733              1.615
 Vibration    10          0.708              1.629              1.294
 Vibration    11          0.763              1.477              0.975
 Vibration    12          0.773              1.453              0.933
 Vibration    13          0.776              1.443              0.917
 Vibration    14          0.782              1.427              0.893
 Vibration    15          0.844              1.276              0.688
 Vibration    16          0.871              1.215              0.619

 Optimization completed.
    -- Stationary point found.
 Normal termination of Gaussian 16 at Sun Aug 23 12:20:45 2020.
 Gaussian 16:  ES64L-G16RevA.03 25-Dec-2016

 ----------------------------------------------------------------------
 # TD(NStates=10, Root=1) B3LYP/6-31G* scf=qc volume pop=NPA density=cu
 rrent Geom=AllCheck Guess=Read
 ----------------------------------------------------------------------

 Structure from the checkpoint file:  "phosphine_3_conf253.chk"
 -------------------
 Title Card Required
 -------------------
 Charge =  0 Multiplicity = 1

                         Standard orientation:
 ---------------------------------------------------------------------
 Center     Atomic      Atomic             Coordinates (Angstroms)
 Number     Number       Type             X           Y           Z
 ---------------------------------------------------------------------
      1          6           0       -0.056697    2.585723    0.714175
      2          1           0        0.004311    2.109017    1.698520
      3          1           0        0.766154    3.300151    0.606152
      4          1           0       -0.994882    3.146443    0.656996
      5         15           0       -0.036665    1.369069   -0.701844
      6          6           0        1.434440    0.319087   -0.299676
      7          6           0        2.400011    0.657992    0.659786
      8          6           0        3.530112   -0.141917    0.852925
      9          6           0        3.712626   -1.296897    0.094128
     10          6           0        2.760317   -1.645801   -0.867590
     11          6           0        1.640435   -0.841945   -1.067098
     12          6           0       -1.438313    0.263215   -0.190324
     13          6           0       -2.620285    0.316928   -0.943573
     14          6           0       -3.728346   -0.458464   -0.593355
     15          6           0       -3.663941   -1.307093    0.511781
     16          6           0       -2.489209   -1.376849    1.265773
     17          6           0       -1.386298   -0.597549    0.918037
     18          1           0        2.280053    1.549836    1.267265
     19          1           0        4.265540    0.140122    1.602330
     20          1           0        4.590461   -1.919236    0.246160
     21          1           0        2.893984   -2.542775   -1.466951
     22          1           0        0.911830   -1.120466   -1.825273
     23          1           0       -2.670290    0.968186   -1.813119
     24          1           0       -4.636800   -0.403986   -1.187774
     25          1           0       -4.522404   -1.916059    0.783154
     26          1           0       -2.432948   -2.040391    2.125162
     27          1           0       -0.474129   -0.665451    1.505108
 ---------------------------------------------------------------------

 SCF Done:  E(RB3LYP) =  -844.564329554     a.u. after    1 cycles

 Excitation energies and oscillator strengths:

 Excited State   1:      Singlet-A      4.6040 eV  269.30 nm  f=0.0434  <S**2>=0.000
      53 -> 54         0.68723
      53 -> 55        -0.11740
 This state for optimization and/or second-order correction.
 Total Energy, E(TD-HF/TD-DFT) =  -844.395136869
 Copying the excited state density for this state as the 1-particle RhoCI density.

 Excited State   2:      Singlet-A      4.8959 eV  253.24 nm  f=0.0130  <S**2>=0.000
      51 -> 55         0.10650
      52 -> 54         0.13686
      52 -> 55         0.11089
      53 -> 55        -0.22433
      53 -> 56         0.62603

 Excited State   3:      Singlet-A      5.0082 eV  247.56 nm  f=0.1455  <S**2>=0.000
      53 -> 54         0.10804
      53 -> 55         0.61697
      53 -> 56         0.20025
      53 -> 57        -0.18837

 Excited State   4:      Singlet-A      5.1449 eV  240.98 nm  f=0.0380  <S**2>=0.000
      50 -> 55         0.12117
      51 -> 54        -0.20887
      52 -> 55        -0.13430
      52 -> 56        -0.10064
      53 -> 55         0.16881
      53 -> 56         0.12462
      53 -> 57         0.59533

 Excited State   5:      Singlet-A      5.4214 eV  228.70 nm  f=0.0047  <S**2>=0.000
      50 -> 55        -0.19259
      50 -> 56         0.26435
      50 -> 57         0.20843
      51 -> 54         0.36820
      51 -> 55        -0.15858
      52 -> 54        -0.31108
      52 -> 56         0.15549
      52 -> 57         0.12176
      53 -> 56         0.12027
      53 -> 57         0.16402

 Excited State   6:      Singlet-A      5.7388 eV  216.05 nm  f=0.0117  <S**2>=0.000
      49 -> 56        -0.20561
      49 -> 57         0.15890
      50 -> 54        -0.15948
      51 -> 54         0.32349
      52 -> 54         0.48541
      53 -> 57         0.18586

 Excited State   7:      Singlet-A      5.8269 eV  212.78 nm  f=0.0124  <S**2>=0.000
      49 -> 56        -0.24846
      49 -> 57         0.18004
      51 -> 54        -0.14182
      51 -> 55         0.13174
      51 -> 56         0.11194
      52 -> 54        -0.18622
      52 -> 55         0.51490
      53 -> 57         0.14834

 Excited State   8:      Singlet-A      5.8570 eV  211.68 nm  f=0.0221  <S**2>=0.000
      49 -> 54         0.18049
      49 -> 56         0.10130
      50 -> 54         0.46220
      50 -> 55         0.34300
      50 -> 56         0.16435
      51 -> 56        -0.10990
      52 -> 54         0.14565
      52 -> 56         0.19505

 Excited State   9:      Singlet-A      5.9280 eV  209.15 nm  f=0.0005  <S**2>=0.000
      50 -> 54         0.16616
      51 -> 54         0.20628
      51 -> 55         0.57156
      51 -> 56         0.12200
      52 -> 55        -0.21534
      52 -> 56        -0.13299

 Excited State  10:      Singlet-A      5.9923 eV  206.91 nm  f=0.0264  <S**2>=0.000
      49 -> 54        -0.31184
      50 -> 54        -0.20318
      50 -> 55         0.45939
      50 -> 56         0.17140
      51 -> 54         0.13474
      51 -> 56         0.16783
      52 -> 55         0.12312
      52 -> 56        -0.14932

 The electronic state is 1-A.
 Alpha  occ. eigenvalues --  -77.07968 -10.19392 -10.19299 -10.19192 -10.19093
 Alpha  occ. eigenvalues --  -10.19069 -10.19059 -10.19012 -10.19001 -10.18964
 Alpha  occ. eigenvalues --  -10.18942 -10.18899 -10.18857 -10.18421  -6.54710
 Alpha  occ. eigenvalues --   -4.70976  -4.70963  -4.70459  -0.85270  -0.84774
 Alpha  occ. eigenvalues --   -0.76468  -0.74321  -0.74255  -0.73796  -0.70921
 Alpha  occ. eigenvalues --   -0.62338  -0.60252  -0.59977  -0.59281  -0.55060
 Alpha  occ. eigenvalues --   -0.51448  -0.49651  -0.45409  -0.44649  -0.44597
 Alpha  occ. eigenvalues --   -0.44242  -0.42401  -0.42080  -0.41685  -0.41109
 Alpha  occ. eigenvalues --   -0.38955  -0.37870  -0.36382  -0.36119  -0.34369
 Alpha  occ. eigenvalues --   -0.34240  -0.32560  -0.31576  -0.26446  -0.25180
 Alpha  occ. eigenvalues --   -0.25018  -0.24725  -0.21380
 Alpha virt. eigenvalues --   -0.01530  -0.00808  -0.00419   0.00542   0.06283
 Alpha virt. eigenvalues --    0.07174   0.09234   0.10908   0.12717   0.13593
 Alpha virt. eigenvalues --    0.14142   0.14681   0.15148   0.15528   0.16193

 Mulliken charges:
               1
     1  C   -0.640353
     2  H    0.215659
     3  H    0.161061
     4  H    0.203731
     5  P    0.507419
     6  C   -0.067083
     7  C   -0.159623
     8  C   -0.112989
     9  C   -0.121495
    10  C   -0.115326
    11  C   -0.143094
    12  C   -0.150317
    13  C   -0.175814
    14  C   -0.134761
    15  C   -0.192797
    16  C   -0.109913
    17  C   -0.192306
    18  H    0.148055
    19  H    0.149085
    20  H    0.153123
    21  H    0.152411
    22  H    0.168964
    23  H    0.089953
    24  H    0.093455
    25  H    0.085478
    26  H    0.100158
    27  H    0.087320
 Sum of Mulliken charges =  -0.00000

 Dipole moment (field-independent basis, Debye):
    X=              7.0104    Y=              2.3417    Z=             -0.4365  Tot=              7.4041
 Quadrupole moment (field-independent basis, Debye-Ang):
   XX=            -91.9200   YY=            -83.0696   ZZ=            -86.8616
   XY=             -6.4545   XZ=              4.1100   YZ=              1.5637

 Summary of Natural Population Analysis:

                                       Natural Population
                Natural  -----------------------------------------------
    Atom  No    Charge         Core      Valence    Rydberg      Total
 -----------------------------------------------------------------------
      C    1   -1.03465      1.99946     5.02409    0.01111     7.03465
      H    2    0.27674      0.00000     0.72216    0.00109     0.72326
      H    3    0.23977      0.00000     0.75840    0.00183     0.76023
      H    4    0.27450      0.00000     0.72481    0.00069     0.72550
      P    5    1.25997      9.99755     3.69258    0.04989    13.74003
      C    6   -0.37066      1.99892     4.34850    0.02324     6.37066
      C    7   -0.21166      1.99900     4.19731    0.01535     6.21166
      C    8   -0.22551      1.99910     4.21217    0.01424     6.22551
      C    9   -0.19002      1.99909     4.17687    0.01406     6.19002
      C   10   -0.23275      1.99910     4.21948    0.01417     6.23275
      C   11   -0.18253      1.99902     4.16711    0.01640     6.18253
      C   12   -0.53824      1.99883     4.51450    0.02492     6.53824
      C   13   -0.23975      1.99902     4.22467    0.01606     6.23975
      C   14   -0.26953      1.99910     4.25449    0.01594     6.26953
      C   15   -0.34755      1.99910     4.33066    0.01779     6.34755
      C   16   -0.21948      1.99908     4.20595    0.01445     6.21948
      C   17   -0.30984      1.99898     4.29108    0.01977     6.30984
      H   18    0.24187      0.00000     0.75690    0.00123     0.75813
      H   19    0.24608      0.00000     0.75308    0.00083     0.75392
      H   20    0.24449      0.00000     0.75472    0.00079     0.75551
      H   21    0.24842      0.00000     0.75080    0.00078     0.75158
      H   22    0.25532      0.00000     0.74310    0.00159     0.74468
      H   23    0.21173      0.00000     0.78753    0.00073     0.78827
      H   24    0.22042      0.00000     0.77873    0.00086     0.77958
      H   25    0.21567      0.00000     0.78355    0.00078     0.78433
      H   26    0.22423      0.00000     0.77490    0.00086     0.77577
      H   27    0.21296      0.00000     0.78598    0.00106     0.78704
 =======================================================================
   * Total *    0.00000     35.98536    69.73413    0.28052   106.00000

 Normal termination of Gaussian 16 at Sun Aug 23 12:28:15 2020.
