 Gaussian 16, Revision A.03,

 ---------------------------------
 # opt=CalcAll B3LYP/6-31G* scf=qc
 ---------------------------------

 -------------------
 Title Card Required
 -------------------
 Symbolic Z-matrix:
 Charge =  0 Multiplicity = 1

 SCF Done:  E(RB3LYP) =  -1036.27814785     a.u. after    8 cycles
 SCF Done:  E(RB3LYP) =  -1036.28419954     a.u. after   15 cycles
 SCF Done:  E(RB3LYP) =  -1036.29595192     a.u. after   17 cycles
 SCF Done:  E(RB3LYP) =  -1036.29765168     a.u. after   15 cycles
 SCF Done:  E(RB3LYP) =  -1036.29819413     a.u. after   15 cycles
 SCF Done:  E(RB3LYP) =  -1036.29823208     a.u. after   11 cycles
 SCF Done:  E(RB3LYP) =  -1036.29822592     a.u. after    3 cycles
 SCF Done:  E(RB3LYP) =  -1036.29823226     a.u. after    7 cycles
 SCF Done:  E(RB3LYP) =  -1036.29823094     a.u. after    4 cycles
 SCF Done:  E(RB3LYP) =  -1036.29823396     a.u. after    2 cycles
 SCF Done:  E(RB3LYP) =  -1036.29823981     a.u. after    2 cycles
 SCF Done:  E(RB3LYP) =  -1036.29822990     a.u. after    2 cycles
 SCF Done:  E(RB3LYP) =  -1036.29823363     a.u. after    4 cycles
 SCF Done:  E(RB3LYP) =  -1036.29823782     a.u. after    2 cycles
 SCF Done:  E(RB3LYP) =  -1036.29822957     a.u. after    2 cycles
 SCF Done:  E(RB3LYP) =  -1036.29823634     a.u. after    2 cycles
 SCF Done:  E(RB3LYP) =  -1036.29823336     a.u. after    2 cycles
 SCF Done:  E(RB3LYP) =  -1036.29823379     a.u. after    2 cycles
 Optimization completed.
    -- Stationary point found.
 Normal termination of Gaussian 16 at Sun Aug 23 12:26:20 2020.

 ----------------------------------------------------------------------
 # freq B3LYP/6-31G* scf=qc volume NMR pop=NPA density=current Geom=All
 Check Guess=Read
 ----------------------------------------------------------------------

 Structure from the checkpoint file:  "phosphine_1_conf302.chk"
 -------------------
 Title Card Required
 -------------------
 Charge =  0 Multiplicity = 1

 SCF Done:  E(RB3LYP) =  -1036.29823379     a.u. after    1 cycles

      1  C    Isotropic =    68.1712   Anisotropy =   167.3447

      2  C    Isotropic =    68.7237   Anisotropy =   164.1346

      3  C    Isotropic =    61.0067   Anisotropy =   164.1262

      4  C    Isotropic =    56.1226   Anisotropy =   179.4131

      5  C    Isotropic =    62.5832   Anisotropy =   174.0464

      6  C    Isotropic =    68.6791   Anisotropy =   163.8856

      7  P    Isotropic =   361.4270   Anisotropy =    39.6875

      8  C    Isotropic =    56.1027   Anisotropy =   179.4426

      9  C    Isotropic =    62.5882   Anisotropy =   174.0402

     10  C    Isotropic =    68.6817   Anisotropy =   163.8922

     11  C    Isotropic =    68.1702   Anisotropy =   167.3316

     12  C    Isotropic =    68.7272   Anisotropy =   164.1129

     13  C    Isotropic =    61.0163   Anisotropy =   164.1182

     14  C    Isotropic =    56.1344   Anisotropy =   179.4392

     15  C    Isotropic =    61.0057   Anisotropy =   164.1135

     16  C    Isotropic =    68.7257   Anisotropy =   164.1088

     17  C    Isotropic =    68.1599   Anisotropy =   167.3324

     18  C    Isotropic =    68.6868   Anisotropy =   163.8974

     19  C    Isotropic =    62.5794   Anisotropy =   174.0759

     20  H    Isotropic =    25.0194   Anisotropy =     3.6426

     21  H    Isotropic =    24.9252   Anisotropy =     4.5909

     22  H    Isotropic =    24.6128   Anisotropy =     9.2565

     23  H    Isotropic =    25.3992   Anisotropy =    12.2303

     24  H    Isotropic =    25.0482   Anisotropy =     6.0859

     25  H    Isotropic =    25.3999   Anisotropy =    12.2288

     26  H    Isotropic =    25.0474   Anisotropy =     6.0869

     27  H    Isotropic =    25.0205   Anisotropy =     3.6403

     28  H    Isotropic =    24.9293   Anisotropy =     4.5863

     29  H    Isotropic =    24.6144   Anisotropy =     9.2534

     30  H    Isotropic =    24.6123   Anisotropy =     9.2479

     31  H    Isotropic =    24.9279   Anisotropy =     4.5855

     32  H    Isotropic =    25.0207   Anisotropy =     3.6410

     33  H    Isotropic =    25.0484   Anisotropy =     6.0849

     34  H    Isotropic =    25.3985   Anisotropy =    12.2224

  Exact polarizability: 224.158  -0.029 224.085  -0.039  -0.002 165.074
 Approx polarizability: 330.936  -0.067 330.790  -0.091  -0.004 308.099

                      1                      2                      3
                      A                      A                      A
 Frequencies --     23.0185                24.2032                38.5610
 Red. masses --      3.7968                 3.7952                 3.6893
 Frc consts  --      0.0012                 0.0013                 0.0032
 IR Inten    --      0.2824                 0.2823                 0.0024

                      4                      5                      6
                      A                      A                      A
 Frequencies --     53.2610                53.3938                70.5324
 Red. masses --      5.2534                 5.2547                 5.1676
 Frc consts  --      0.0088                 0.0088                 0.0151
 IR Inten    --      0.0837                 0.0859                 0.3100

                      7                      8                      9
                      A                      A                      A
 Frequencies --    181.5191               202.2433               202.7520
 Red. masses --      4.5612                 4.6422                 4.6420
 Frc consts  --      0.0885                 0.1119                 0.1124
 IR Inten    --      0.3524                 1.1341                 1.1367

                     10                     11                     12
                      A                      A                      A
 Frequencies --    245.5223               259.7695               259.8266
 Red. masses --      5.7387                 4.7209                 4.7210
 Frc consts  --      0.2038                 0.1877                 0.1878
 IR Inten    --      0.4819                 0.2262                 0.2233

                     13                     14                     15
                      A                      A                      A
 Frequencies --    408.7563               408.8762               412.3358
 Red. masses --      3.0766                 3.0804                 3.5880
 Frc consts  --      0.3029                 0.3034                 0.3594
 IR Inten    --      1.9504                 1.9725                 0.1587

                     16                     17                     18
                      A                      A                      A
 Frequencies --    417.1374               429.4765               429.5354
 Red. masses --      4.6247                 7.3104                 7.3210
 Frc consts  --      0.4741                 0.7945                 0.7958
 IR Inten    --      0.5639                 7.7050                 7.7246

                     19                     20                     21
                      A                      A                      A
 Frequencies --    509.4132               509.6020               516.4545
 Red. masses --      4.2470                 4.2437                 4.5889
 Frc consts  --      0.6493                 0.6493                 0.7212
 IR Inten    --     26.1487                26.0830                11.9686

                     22                     23                     24
                      A                      A                      A
 Frequencies --    632.7148               632.7206               633.3511
 Red. masses --      6.4271                 6.4273                 6.4370
 Frc consts  --      1.5159                 1.5160                 1.5213
 IR Inten    --      0.1800                 0.1791                 0.0161

                     25                     26                     27
                      A                      A                      A
 Frequencies --    691.8744               705.1583               705.2174
 Red. masses --      6.5801                 5.7104                 5.7517
 Frc consts  --      1.8558                 1.6730                 1.6854
 IR Inten    --      0.7908                 1.1661                 1.0662

                     28                     29                     30
                      A                      A                      A
 Frequencies --    712.2190               712.3532               713.3250
 Red. masses --      2.2042                 2.1933                 2.1335
 Frc consts  --      0.6588                 0.6558                 0.6396
 IR Inten    --     26.3578                26.3704                16.7212

                     31                     32                     33
                      A                      A                      A
 Frequencies --    761.4260               762.8782               762.9549
 Red. masses --      1.6158                 1.6479                 1.6498
 Frc consts  --      0.5520                 0.5650                 0.5658
 IR Inten    --     19.1762                24.9406                24.8693

                     34                     35                     36
                      A                      A                      A
 Frequencies --    866.1526               866.2497               868.7735
 Red. masses --      1.2478                 1.2477                 1.2462
 Frc consts  --      0.5515                 0.5516                 0.5542
 IR Inten    --      0.2243                 0.2217                 0.1317

                     37                     38                     39
                      A                      A                      A
 Frequencies --    932.9116               933.0091               934.2693
 Red. masses --      1.3443                 1.3441                 1.3385
 Frc consts  --      0.6893                 0.6894                 0.6883
 IR Inten    --      1.2654                 1.2467                 0.0399

                     40                     41                     42
                      A                      A                      A
 Frequencies --    975.7604               975.8764               977.6635
 Red. masses --      1.3614                 1.3612                 1.3556
 Frc consts  --      0.7637                 0.7637                 0.7634
 IR Inten    --      0.0157                 0.0160                 0.1394

                     43                     44                     45
                      A                      A                      A
 Frequencies --   1000.3474              1000.3999              1001.1182
 Red. masses --      1.2543                 1.2542                 1.2525
 Frc consts  --      0.7395                 0.7395                 0.7396
 IR Inten    --      0.0812                 0.0783                 0.0009

                     46                     47                     48
                      A                      A                      A
 Frequencies --   1015.3511              1015.3645              1015.7454
 Red. masses --      6.3116                 6.3113                 6.3103
 Frc consts  --      3.8337                 3.8336                 3.8359
 IR Inten    --      4.3642                 4.3584                 0.0492

                     49                     50                     51
                      A                      A                      A
 Frequencies --   1052.7032              1052.7455              1052.9237
 Red. masses --      3.3109                 3.3204                 3.2538
 Frc consts  --      2.1618                 2.1681                 2.1254
 IR Inten    --      2.1064                 2.0658                 0.0378

                     52                     53                     54
                      A                      A                      A
 Frequencies --   1107.7467              1108.2457              1109.4675
 Red. masses --      1.8865                 1.8472                 1.6552
 Frc consts  --      1.3639                 1.3367                 1.2004
 IR Inten    --      4.3183                 3.6513                 2.8598

                     55                     56                     57
                      A                      A                      A
 Frequencies --   1110.7792              1110.8819              1116.1073
 Red. masses --      2.1888                 2.2401                 2.6132
 Frc consts  --      1.5911                 1.6287                 1.9180
 IR Inten    --      9.3716                 9.9345                 1.2209

                     58                     59                     60
                      A                      A                      A
 Frequencies --   1193.5159              1193.9137              1193.9913
 Red. masses --      1.1034                 1.1000                 1.1001
 Frc consts  --      0.9260                 0.9238                 0.9240
 IR Inten    --      0.0022                 0.1335                 0.1242

                     61                     62                     63
                      A                      A                      A
 Frequencies --   1219.1550              1219.6216              1220.8939
 Red. masses --      1.1475                 1.1478                 1.1474
 Frc consts  --      1.0049                 1.0060                 1.0077
 IR Inten    --      6.0350                 5.9463                 0.4970

                     64                     65                     66
                      A                      A                      A
 Frequencies --   1325.0522              1328.7059              1328.9615
 Red. masses --      3.4970                 3.4814                 3.5367
 Frc consts  --      3.6175                 3.6213                 3.6802
 IR Inten    --      2.6318                 2.4452                 2.4419

                     67                     68                     69
                      A                      A                      A
 Frequencies --   1365.0831              1365.4104              1365.8553
 Red. masses --      1.6592                 1.6499                 1.6361
 Frc consts  --      1.8216                 1.8123                 1.7984
 IR Inten    --      0.2576                 1.2695                 1.8759

                     70                     71                     72
                      A                      A                      A
 Frequencies --   1480.5225              1480.9754              1481.0398
 Red. masses --      2.1104                 2.1153                 2.1155
 Frc consts  --      2.7255                 2.7335                 2.7340
 IR Inten    --     16.6223                 6.6127                 6.6400

                     73                     74                     75
                      A                      A                      A
 Frequencies --   1531.1139              1531.5625              1531.7296
 Red. masses --      2.0149                 1.9989                 1.9965
 Frc consts  --      2.7831                 2.7626                 2.7598
 IR Inten    --      2.0583                10.1669                10.1131

                     76                     77                     78
                      A                      A                      A
 Frequencies --   1630.1727              1630.4236              1630.4956
 Red. masses --      5.1006                 5.1139                 5.1099
 Frc consts  --      7.9862                 8.0094                 8.0039
 IR Inten    --      0.3956                 0.0454                 0.0482

                     79                     80                     81
                      A                      A                      A
 Frequencies --   1646.1754              1646.2099              1647.9889
 Red. masses --      5.2715                 5.2682                 5.2815
 Frc consts  --      8.4165                 8.4116                 8.4511
 IR Inten    --      3.5185                 3.5100                 0.3190

                     82                     83                     84
                      A                      A                      A
 Frequencies --   3176.1035              3176.1495              3176.1709
 Red. masses --      1.0854                 1.0853                 1.0853
 Frc consts  --      6.4508                 6.4508                 6.4509
 IR Inten    --      2.1229                 2.0065                 1.8404

                     85                     86                     87
                      A                      A                      A
 Frequencies --   3182.6642              3182.7017              3182.7658
 Red. masses --      1.0875                 1.0875                 1.0876
 Frc consts  --      6.4902                 6.4904                 6.4912
 IR Inten    --      0.7463                 0.8004                 0.1474

                     88                     89                     90
                      A                      A                      A
 Frequencies --   3192.8409              3192.8650              3192.9889
 Red. masses --      1.0916                 1.0916                 1.0917
 Frc consts  --      6.5566                 6.5567                 6.5578
 IR Inten    --     10.2911                10.4324                47.1313

                     91                     92                     93
                      A                      A                      A
 Frequencies --   3203.8436              3203.8799              3204.2676
 Red. masses --      1.0941                 1.0941                 1.0942
 Frc consts  --      6.6166                 6.6168                 6.6191
 IR Inten    --     40.8097                41.0315                 4.7071

                     94                     95                     96
                      A                      A                      A
 Frequencies --   3209.9764              3210.0243              3210.9088
 Red. masses --      1.0958                 1.0957                 1.0957
 Frc consts  --      6.6523                 6.6523                 6.6558
 IR Inten    --     20.7281                20.5100                16.2458

 - Thermochemistry -
 -------------------
 Temperature   298.150 Kelvin.  Pressure   1.00000 Atm.
 Atom     1 has atomic number  6 and mass  12.00000

 Molecular mass:   262.09114 amu.
 Principal axes and moments of inertia in atomic units:
                           1         2         3
     Eigenvalues --  5162.635575163.774448680.78057
           X            0.99962  -0.02749  -0.00001
           Y            0.02749   0.99962  -0.00000
           Z            0.00001   0.00000   1.00000
 This molecule is an asymmetric top.
 Rotational symmetry number  1.
 Warning -- assumption of classical behavior for rotation
           may cause significant error
 Rotational temperatures (Kelvin)      0.01678     0.01677     0.00998
 Rotational constants (GHZ):           0.34958     0.34950     0.20790
 Zero-point vibrational energy     719970.7 (Joules/Mol)
                                  172.07712 (Kcal/Mol)
 Warning -- explicit consideration of  21 degrees of freedom as
           vibrations may cause significant error
 Vibrational temperatures:     33.12    34.82    55.48    76.63    76.82
          (Kelvin)            101.48   261.17   290.98   291.71   353.25
                              373.75   373.83   588.11   588.28   593.26
                              600.17   617.92   618.01   732.93   733.20
                              743.06   910.34   910.34   911.25   995.45
                             1014.57  1014.65  1024.72  1024.92  1026.32
                             1095.52  1097.61  1097.72  1246.20  1246.34
                             1249.97  1342.25  1342.39  1344.21  1403.90
                             1404.07  1406.64  1439.28  1439.35  1440.39
                             1460.86  1460.88  1461.43  1514.61  1514.67
                             1514.92  1593.80  1594.52  1596.28  1598.16
                             1598.31  1605.83  1717.20  1717.78  1717.89
                             1754.09  1754.76  1756.59  1906.45  1911.71
                             1912.08  1964.05  1964.52  1965.16  2130.14
                             2130.79  2130.89  2202.93  2203.58  2203.82
                             2345.45  2345.82  2345.92  2368.48  2368.53
                             2371.09  4569.70  4569.77  4569.80  4579.14
                             4579.20  4579.29  4593.79  4593.82  4594.00
                             4609.62  4609.67  4610.23  4618.44  4618.51
                             4619.78

 Zero-point correction=                           0.274222 (Hartree/Particle)
 Thermal correction to Energy=                    0.290142
 Thermal correction to Enthalpy=                  0.291087
 Thermal correction to Gibbs Free Energy=         0.227784
 Sum of electronic and zero-point Energies=          -1036.024011
 Sum of electronic and thermal Energies=             -1036.008091
 Sum of electronic and thermal Enthalpies=           -1036.007147
 Sum of electronic and thermal Free Energies=        -1036.070450

                     E (Thermal)             CV                S
                      KCal/Mol        Cal/Mol-Kelvin    Cal/Mol-Kelvin
 Total                  182.067             62.536            133.232
 Electronic               0.000              0.000              0.000
 Translational            0.889              2.981             42.590
 Rotational               0.889              2.981             33.803
 Vibrational            180.290             56.575             56.839
 Vibration     1          0.593              1.985              6.355
 Vibration     2          0.593              1.985              6.255
 Vibration     3          0.594              1.981              5.332
 Vibration     4          0.596              1.976              4.692
 Vibration     5          0.596              1.976              4.688
 Vibration     6          0.598              1.968              4.138
 Vibration     7          0.630              1.865              2.313
 Vibration     8          0.639              1.837              2.113
 Vibration     9          0.639              1.836              2.108
 Vibration    10          0.660              1.770              1.763
 Vibration    11          0.668              1.746              1.663
 Vibration    12          0.668              1.746              1.663
 Vibration    13          0.773              1.451              0.931
 Vibration    14          0.773              1.451              0.931
 Vibration    15          0.776              1.443              0.918
 Vibration    16          0.780              1.433              0.902
 Vibration    17          0.791              1.406              0.860
 Vibration    18          0.791              1.406              0.860
 Vibration    19          0.865              1.229              0.635
 Vibration    20          0.865              1.229              0.635
 Vibration    21          0.871              1.214              0.618

                           ! Non-Optimized Parameters !
 Normal termination of Gaussian 16 at Sun Aug 23 12:37:30 2020.
 Gaussian 16:  ES64L-G16RevA.03 25-Dec-2016

 ----------------------------------------------------------------------
 # TD(NStates=10, Root=1) B3LYP/6-31G* scf=qc volume pop=NPA density=cu
 rrent Geom=AllCheck Guess=Read
 ----------------------------------------------------------------------

 Structure from the checkpoint file:  "phosphine_1_conf303.chk"
 -------------------
 Title Card Required
 -------------------
 Charge =  0 Multiplicity = 1

                         Standard orientation:
 ---------------------------------------------------------------------
 Center     Atomic      Atomic             Coordinates (Angstroms)
 Number     Number       Type             X           Y           Z
 ---------------------------------------------------------------------
      1          6           0       -3.635260   -2.260379    0.651253
      2          6           0       -3.764519   -1.489959   -0.506315
      3          6           0       -2.654682   -0.829279   -1.032490
      4          6           0       -1.401118   -0.910328   -0.402634
      5          6           0       -1.284104   -1.689920    0.758260
      6          6           0       -2.392719   -2.361101    1.278952
      7         15           0        0.000012   -0.000104   -1.206388
      8          6           0       -0.087791    1.668376   -0.402540
      9          6           0       -0.821485    1.956734    0.758347
     10          6           0       -0.848393    3.252357    1.279187
     11          6           0       -0.139808    4.278102    0.651637
     12          6           0        0.592057    4.004930   -0.505931
     13          6           0        0.609265    2.713500   -1.032246
     14          6           0        1.488837   -0.758206   -0.402405
     15          6           0        2.047233   -1.882727   -1.033524
     16          6           0        3.174384   -2.513290   -0.507159
     17          6           0        3.775147   -2.017505    0.651924
     18          6           0        3.239249   -0.892690    1.280961
     19          6           0        2.103663   -0.268444    0.760033
     20          1           0       -4.496481   -2.784326    1.057543
     21          1           0       -4.726853   -1.412193   -1.005705
     22          1           0       -2.758962   -0.247100   -1.945351
     23          1           0       -0.322816   -1.776887    1.255702
     24          1           0       -2.283865   -2.963004    2.177742
     25          1           0       -1.377483    1.167657    1.255644
     26          1           0       -1.424101    3.458967    2.177981
     27          1           0       -0.162920    5.285868    1.058042
     28          1           0        1.140629    4.799481   -1.005213
     29          1           0        1.165596    2.512801   -1.945119
     30          1           0        1.596597   -2.262994   -1.947549
     31          1           0        3.589649   -3.384302   -1.007578
     32          1           0        4.659546   -2.501165    1.058376
     33          1           0        3.704670   -0.498548    2.180957
     34          1           0        1.696877    0.606282    1.258498
 ---------------------------------------------------------------------

 SCF Done:  E(RB3LYP) =  -1036.29823379     a.u. after    1 cycles

 Excitation energies and oscillator strengths:

 Excited State   1:      Singlet-A      4.5099 eV  274.92 nm  f=0.1277  <S**2>=0.000
      69 -> 70         0.69706
 This state for optimization and/or second-order correction.
 Total Energy, E(TD-HF/TD-DFT) =  -1036.13249867
 Copying the excited state density for this state as the 1-particle RhoCI density.

 Excited State   2:      Singlet-A      4.5109 eV  274.85 nm  f=0.1281  <S**2>=0.000
      69 -> 71         0.69704

 Excited State   3:      Singlet-A      4.7572 eV  260.62 nm  f=0.0022  <S**2>=0.000
      67 -> 70        -0.12319
      68 -> 71         0.12342
      69 -> 72         0.67465

 Excited State   4:      Singlet-A      5.0578 eV  245.14 nm  f=0.0002  <S**2>=0.000
      66 -> 70         0.16636
      67 -> 70         0.12813
      68 -> 71         0.12806
      69 -> 74         0.62953

 Excited State   5:      Singlet-A      5.0582 eV  245.12 nm  f=0.0002  <S**2>=0.000
      66 -> 71         0.16664
      67 -> 71        -0.12837
      68 -> 70         0.12836
      69 -> 75         0.62927

 Excited State   6:      Singlet-A      5.1510 eV  240.70 nm  f=0.0085  <S**2>=0.000
      69 -> 73         0.67914

 Excited State   7:      Singlet-A      5.4274 eV  228.44 nm  f=0.0147  <S**2>=0.000
      63 -> 72         0.16613
      64 -> 74         0.14427
      65 -> 75        -0.14322
      67 -> 70         0.42181
      68 -> 71        -0.41861
      69 -> 72         0.16522

 Excited State   8:      Singlet-A      5.5141 eV  224.85 nm  f=0.0005  <S**2>=0.000
      63 -> 74         0.14335
      64 -> 71         0.12462
      64 -> 72         0.22236
      64 -> 74        -0.10347
      65 -> 70        -0.12612
      65 -> 72         0.17455
      65 -> 75        -0.10462
      66 -> 70        -0.22630
      67 -> 70        -0.23852
      67 -> 71        -0.12601
      68 -> 70         0.12620
      68 -> 71        -0.24347
      68 -> 72         0.16331
      69 -> 74         0.28605

 Excited State   9:      Singlet-A      5.5146 eV  224.83 nm  f=0.0004  <S**2>=0.000
      63 -> 75         0.14357
      64 -> 70         0.12458
      64 -> 72         0.17471
      64 -> 75         0.10390
      65 -> 71         0.12414
      65 -> 72        -0.22241
      65 -> 74        -0.10384
      66 -> 71        -0.22567
      67 -> 70        -0.12616
      67 -> 71         0.24007
      67 -> 72         0.16364
      68 -> 70        -0.24269
      68 -> 71        -0.12697
      69 -> 75         0.28649

 Excited State  10:      Singlet-A      5.6181 eV  220.69 nm  f=0.0009  <S**2>=0.000
      67 -> 71         0.47766
      68 -> 70         0.48136

 The electronic state is 1-A.
 Alpha  occ. eigenvalues --  -77.08112 -10.19447 -10.19447 -10.19446 -10.19147
 Alpha  occ. eigenvalues --  -10.19146 -10.19145 -10.19118 -10.19117 -10.19116
 Alpha  occ. eigenvalues --  -10.19031 -10.19030 -10.19030 -10.19008 -10.19007
 Alpha  occ. eigenvalues --  -10.19006 -10.18963 -10.18961 -10.18961  -6.54843
 Alpha  occ. eigenvalues --   -4.71102  -4.71102  -4.70601  -0.85560  -0.84846
 Alpha  occ. eigenvalues --   -0.84845  -0.76669  -0.74366  -0.74366  -0.74329
 Alpha  occ. eigenvalues --   -0.73821  -0.73821  -0.64436  -0.60336  -0.60307
 Alpha  occ. eigenvalues --   -0.60306  -0.59207  -0.59207  -0.55448  -0.51435
 Alpha  occ. eigenvalues --   -0.51435  -0.49295  -0.45440  -0.45439  -0.44774
 Alpha  occ. eigenvalues --   -0.44344  -0.44344  -0.44068  -0.41946  -0.41868
 Alpha  occ. eigenvalues --   -0.41868  -0.40378  -0.40377  -0.36844  -0.36352
 Alpha  occ. eigenvalues --   -0.36350  -0.35898  -0.34252  -0.34251  -0.34224
 Alpha  occ. eigenvalues --   -0.31884  -0.31883  -0.26775  -0.25448  -0.25446
 Alpha  occ. eigenvalues --   -0.25242  -0.24704  -0.24704  -0.21144
 Alpha virt. eigenvalues --   -0.01881  -0.01878  -0.00830   0.00173   0.00427
 Alpha virt. eigenvalues --    0.00430   0.06882   0.06887   0.09492   0.11039
 Alpha virt. eigenvalues --    0.11039   0.13903   0.14529   0.14529   0.15165

 Mulliken charges:
               1
     1  C   -0.137643
     2  C   -0.116586
     3  C   -0.170323
     4  C   -0.105773
     5  C   -0.152417
     6  C   -0.123299
     7  P    0.450690
     8  C   -0.084151
     9  C   -0.157014
    10  C   -0.116681
    11  C   -0.128856
    12  C   -0.122635
    13  C   -0.152185
    14  C   -0.131217
    15  C   -0.169774
    16  C   -0.123841
    17  C   -0.169652
    18  C   -0.118098
    19  C   -0.176164
    20  H    0.133282
    21  H    0.132328
    22  H    0.133775
    23  H    0.169480
    24  H    0.137510
    25  H    0.159288
    26  H    0.142459
    27  H    0.140983
    28  H    0.139674
    29  H    0.146883
    30  H    0.113431
    31  H    0.112536
    32  H    0.106281
    33  H    0.115705
    34  H    0.122004
 Sum of Mulliken charges =  -0.00000

 Dipole moment (field-independent basis, Debye):
    X=             -2.9078    Y=              2.3796    Z=             -0.1966  Tot=              3.7625
 Quadrupole moment (field-independent basis, Debye-Ang):
   XX=           -118.5769   YY=           -108.4936   ZZ=           -110.6602
   XY=              4.8815   XZ=             -1.3474   YZ=              0.0807

 Summary of Natural Population Analysis:

                                       Natural Population
                Natural  -----------------------------------------------
    Atom  No    Charge         Core      Valence    Rydberg      Total
 -----------------------------------------------------------------------
      C    1   -0.23169      1.99909     4.21773    0.01486     6.23169
      C    2   -0.23189      1.99910     4.21850    0.01429     6.23189
      C    3   -0.22568      1.99902     4.21087    0.01579     6.22568
      C    4   -0.42524      1.99890     4.40019    0.02615     6.42524
      C    5   -0.21154      1.99899     4.19585    0.01670     6.21154
      C    6   -0.23666      1.99909     4.22315    0.01442     6.23666
      P    7    1.24225      9.99750     3.71001    0.05025    13.75775
      C    8   -0.38648      1.99889     4.36346    0.02413     6.38648
      C    9   -0.22565      1.99899     4.21008    0.01658     6.22565
      C   10   -0.22448      1.99909     4.21138    0.01401     6.22448
      C   11   -0.21322      1.99909     4.19991    0.01422     6.21322
      C   12   -0.24206      1.99910     4.22839    0.01457     6.24206
      C   13   -0.19740      1.99902     4.18326    0.01513     6.19740
      C   14   -0.48491      1.99886     4.46083    0.02523     6.48491
      C   15   -0.23125      1.99901     4.21593    0.01631     6.23125
      C   16   -0.24665      1.99910     4.23245    0.01510     6.24665
      C   17   -0.29965      1.99910     4.28381    0.01675     6.29965
      C   18   -0.22894      1.99909     4.21527    0.01458     6.22894
      C   19   -0.26567      1.99899     4.24858    0.01811     6.26567
      H   20    0.23648      0.00000     0.76263    0.00088     0.76352
      H   21    0.23789      0.00000     0.76116    0.00095     0.76211
      H   22    0.23349      0.00000     0.76545    0.00106     0.76651
      H   23    0.25755      0.00000     0.74103    0.00142     0.74245
      H   24    0.24141      0.00000     0.75771    0.00088     0.75859
      H   25    0.25234      0.00000     0.74643    0.00123     0.74766
      H   26    0.24355      0.00000     0.75558    0.00087     0.75645
      H   27    0.23990      0.00000     0.75926    0.00084     0.76010
      H   28    0.24199      0.00000     0.75714    0.00087     0.75801
      H   29    0.24172      0.00000     0.75703    0.00125     0.75828
      H   30    0.22395      0.00000     0.77504    0.00101     0.77605
      H   31    0.22919      0.00000     0.76991    0.00090     0.77081
      H   32    0.22487      0.00000     0.77424    0.00089     0.77513
      H   33    0.23120      0.00000     0.76792    0.00088     0.76880
      H   34    0.23129      0.00000     0.76723    0.00148     0.76871
 =======================================================================
   * Total *    0.00000     45.98001    91.64739    0.37260   138.00000

 Normal termination of Gaussian 16 at Sun Aug 23 12:50:03 2020.
