 Gaussian 16, Revision A.03,

 ---------------------------------
 # opt=CalcAll B3LYP/6-31G* scf=qc
 ---------------------------------

 -------------------
 Title Card Required
 -------------------
 Symbolic Z-matrix:
 Charge =  0 Multiplicity = 1

 SCF Done:  E(RB3LYP) =  -2415.06623329     a.u. after    8 cycles
 SCF Done:  E(RB3LYP) =  -2415.08149182     a.u. after   19 cycles
 SCF Done:  E(RB3LYP) =  -2415.08548774     a.u. after   19 cycles
 SCF Done:  E(RB3LYP) =  -2415.08615348     a.u. after   13 cycles
 SCF Done:  E(RB3LYP) =  -2415.08623016     a.u. after   11 cycles
 SCF Done:  E(RB3LYP) =  -2415.08623959     a.u. after    7 cycles
 SCF Done:  E(RB3LYP) =  -2415.08624364     a.u. after    4 cycles
 SCF Done:  E(RB3LYP) =  -2415.08624293     a.u. after    2 cycles
 SCF Done:  E(RB3LYP) =  -2415.08624177     a.u. after    3 cycles
 SCF Done:  E(RB3LYP) =  -2415.08624747     a.u. after    2 cycles
 SCF Done:  E(RB3LYP) =  -2415.08624873     a.u. after    2 cycles
 Optimization completed.
    -- Stationary point found.
 Normal termination of Gaussian 16 at Sun Aug 23 01:09:16 2020.

 ----------------------------------------------------------------------
 # freq B3LYP/6-31G* scf=qc volume NMR pop=NPA density=current Geom=All
 Check Guess=Read
 ----------------------------------------------------------------------

 Structure from the checkpoint file:  "phosphine_11_conf172.chk"
 -------------------
 Title Card Required
 -------------------
 Charge =  0 Multiplicity = 1

 SCF Done:  E(RB3LYP) =  -2415.08624873     a.u. after    1 cycles

      1  C    Isotropic =    67.5470   Anisotropy =   140.5724

      2  C    Isotropic =    60.2169   Anisotropy =   160.2790

      3  C    Isotropic =    58.7595   Anisotropy =   177.4496

      4  C    Isotropic =    61.8855   Anisotropy =   168.6375

      5  C    Isotropic =    67.5364   Anisotropy =   140.1166

      6  C    Isotropic =    51.5886   Anisotropy =   109.1569

      7  Cl   Isotropic =   720.8812   Anisotropy =   453.0293

      8  P    Isotropic =   364.8832   Anisotropy =    38.0001

      9  C    Isotropic =    58.7594   Anisotropy =   177.4136

     10  C    Isotropic =    61.8918   Anisotropy =   168.6196

     11  C    Isotropic =    67.5379   Anisotropy =   140.1086

     12  C    Isotropic =    51.5966   Anisotropy =   109.1505

     13  C    Isotropic =    67.5495   Anisotropy =   140.5896

     14  C    Isotropic =    60.2212   Anisotropy =   160.2886

     15  Cl   Isotropic =   720.9593   Anisotropy =   452.9343

     16  C    Isotropic =    58.7290   Anisotropy =   177.4596

     17  C    Isotropic =    60.2283   Anisotropy =   160.2942

     18  C    Isotropic =    67.5481   Anisotropy =   140.5580

     19  C    Isotropic =    51.6063   Anisotropy =   109.1167

     20  C    Isotropic =    67.5406   Anisotropy =   140.1184

     21  C    Isotropic =    61.9008   Anisotropy =   168.6058

     22  Cl   Isotropic =   720.9489   Anisotropy =   452.9582

     23  H    Isotropic =    25.0933   Anisotropy =     6.6316

     24  H    Isotropic =    24.7761   Anisotropy =     8.9662

     25  H    Isotropic =    25.5793   Anisotropy =    12.1101

     26  H    Isotropic =    25.2077   Anisotropy =     8.1429

     27  H    Isotropic =    25.5807   Anisotropy =    12.1145

     28  H    Isotropic =    25.2093   Anisotropy =     8.1403

     29  H    Isotropic =    25.0906   Anisotropy =     6.6365

     30  H    Isotropic =    24.7783   Anisotropy =     8.9691

     31  H    Isotropic =    24.7783   Anisotropy =     8.9736

     32  H    Isotropic =    25.0947   Anisotropy =     6.6299

     33  H    Isotropic =    25.2077   Anisotropy =     8.1425

     34  H    Isotropic =    25.5802   Anisotropy =    12.1175

  Exact polarizability: 280.622   0.042 280.536  -0.034  -0.024 185.160
 Approx polarizability: 393.440   0.098 393.308  -0.077  -0.059 343.263

                      1                      2                      3
                      A                      A                      A
 Frequencies --     23.0989                23.5323                29.8173
 Red. masses --      4.9874                 5.2057                 7.9495
 Frc consts  --      0.0016                 0.0017                 0.0042
 IR Inten    --      0.2602                 0.2517                 0.2024

                      4                      5                      6
                      A                      A                      A
 Frequencies --     30.1560                38.4260                40.4176
 Red. masses --      7.4531                 7.5687                 4.7544
 Frc consts  --      0.0040                 0.0066                 0.0046
 IR Inten    --      0.2142                 0.1864                 0.0414

                      7                      8                      9
                      A                      A                      A
 Frequencies --    109.3373               117.6480               117.7562
 Red. masses --      8.8650                 8.8345                 8.8305
 Frc consts  --      0.0624                 0.0720                 0.0721
 IR Inten    --      0.0247                 0.3509                 0.3501

                     10                     11                     12
                      A                      A                      A
 Frequencies --    181.0623               187.3681               187.5996
 Red. masses --     10.0371                 8.7819                 8.7973
 Frc consts  --      0.1939                 0.1816                 0.1824
 IR Inten    --      0.3326                 0.5701                 0.5712

                     13                     14                     15
                      A                      A                      A
 Frequencies --    264.0787               293.7415               293.7898
 Red. masses --      8.9788                 8.4177                 8.4111
 Frc consts  --      0.3689                 0.4279                 0.4277
 IR Inten    --      0.2159                 0.9094                 0.9103

                     16                     17                     18
                      A                      A                      A
 Frequencies --    310.8923               328.7208               328.8840
 Red. masses --      6.0414                 5.9826                 5.9759
 Frc consts  --      0.3440                 0.3809                 0.3808
 IR Inten    --      0.0031                 1.8834                 1.8709

                     19                     20                     21
                      A                      A                      A
 Frequencies --    384.0312               384.1334               414.7884
 Red. masses --      8.0357                 8.0261                 3.0460
 Frc consts  --      0.6982                 0.6978                 0.3088
 IR Inten    --     21.0228                20.9836                 0.0499

                     22                     23                     24
                      A                      A                      A
 Frequencies --    414.8457               416.8143               426.8825
 Red. masses --      3.0464                 3.2116                 6.6111
 Frc consts  --      0.3089                 0.3287                 0.7098
 IR Inten    --      0.0515                 0.1628                 2.9428

                     25                     26                     27
                      A                      A                      A
 Frequencies --    499.5318               509.5074               509.5380
 Red. masses --      5.5246                 3.6484                 3.6515
 Frc consts  --      0.8122                 0.5580                 0.5586
 IR Inten    --      6.8163                19.8625                19.8596

                     28                     29                     30
                      A                      A                      A
 Frequencies --    531.6567               548.8743               548.9150
 Red. masses --      4.5700                 7.4369                 7.4162
 Frc consts  --      0.7611                 1.3200                 1.3166
 IR Inten    --      9.8584                 5.4600                 5.4906

                     31                     32                     33
                      A                      A                      A
 Frequencies --    644.3643               644.3969               645.3311
 Red. masses --      7.1597                 7.1604                 7.1687
 Frc consts  --      1.7515                 1.7518                 1.7590
 IR Inten    --      0.0370                 0.0366                 0.0958

                     34                     35                     36
                      A                      A                      A
 Frequencies --    718.3004               718.3754               718.7431
 Red. masses --      4.5916                 4.5943                 4.6083
 Frc consts  --      1.3958                 1.3969                 1.4026
 IR Inten    --      1.7014                 1.6736                 0.2805

                     37                     38                     39
                      A                      A                      A
 Frequencies --    746.0934               751.6397               751.6958
 Red. masses --      7.2606                 7.2737                 7.2731
 Frc consts  --      2.3813                 2.4212                 2.4213
 IR Inten    --     14.6358                54.3535                54.4311

                     40                     41                     42
                      A                      A                      A
 Frequencies --    833.7602               834.2368               834.3401
 Red. masses --      1.4163                 1.4320                 1.4313
 Frc consts  --      0.5801                 0.5872                 0.5870
 IR Inten    --     23.2683                32.8850                32.9052

                     43                     44                     45
                      A                      A                      A
 Frequencies --    845.9552               846.0614               849.0416
 Red. masses --      1.2466                 1.2465                 1.2500
 Frc consts  --      0.5256                 0.5257                 0.5309
 IR Inten    --      0.6479                 0.6269                 0.3022

                     46                     47                     48
                      A                      A                      A
 Frequencies --    969.6535               969.7602               970.0774
 Red. masses --      1.2762                 1.2766                 1.2877
 Frc consts  --      0.7070                 0.7074                 0.7140
 IR Inten    --      0.1506                 0.1394                 0.2165

                     49                     50                     51
                      A                      A                      A
 Frequencies --    973.4775               973.6244               976.7773
 Red. masses --      1.3450                 1.3441                 1.3218
 Frc consts  --      0.7510                 0.7507                 0.7430
 IR Inten    --      0.0116                 0.0105                 0.4170

                     52                     53                     54
                      A                      A                      A
 Frequencies --   1027.9652              1028.0186              1029.6319
 Red. masses --      4.7543                 4.7670                 4.7000
 Frc consts  --      2.9600                 2.9682                 2.9357
 IR Inten    --     62.7069                62.7478                 5.1152

                     55                     56                     57
                      A                      A                      A
 Frequencies --   1097.7056              1097.8060              1101.4790
 Red. masses --      7.8880                 7.9272                 8.0777
 Frc consts  --      5.6000                 5.6288                 5.7742
 IR Inten    --     80.6279                81.6277                13.7015

                     58                     59                     60
                      A                      A                      A
 Frequencies --   1118.1640              1118.3979              1121.1397
 Red. masses --      2.1241                 2.1206                 2.1012
 Frc consts  --      1.5647                 1.5628                 1.5561
 IR Inten    --     33.3282                32.6250                 6.4854

                     61                     62                     63
                      A                      A                      A
 Frequencies --   1139.3049              1139.5002              1139.5604
 Red. masses --      1.4012                 1.4019                 1.4022
 Frc consts  --      1.0716                 1.0725                 1.0729
 IR Inten    --      0.9223                 0.1504                 3.0872

                     64                     65                     66
                      A                      A                      A
 Frequencies --   1219.0339              1219.4993              1220.8220
 Red. masses --      1.1568                 1.1574                 1.1518
 Frc consts  --      1.0128                 1.0141                 1.0114
 IR Inten    --      4.7295                 4.8139                 0.9765

                     67                     68                     69
                      A                      A                      A
 Frequencies --   1318.3333              1322.2588              1322.3747
 Red. masses --      6.8847                 7.5259                 7.7811
 Frc consts  --      7.0500                 7.7525                 8.0168
 IR Inten    --      1.3259                 2.6690                 2.6547

                     70                     71                     72
                      A                      A                      A
 Frequencies --   1337.1531              1337.5914              1337.7788
 Red. masses --      1.3439                 1.3325                 1.3421
 Frc consts  --      1.4157                 1.4047                 1.4151
 IR Inten    --      0.5632                 0.5199                 1.2097

                     73                     74                     75
                      A                      A                      A
 Frequencies --   1429.5322              1429.9769              1430.1254
 Red. masses --      2.6376                 2.6427                 2.6395
 Frc consts  --      3.1757                 3.1838                 3.1806
 IR Inten    --     18.7706                 6.9900                 6.1810

                     76                     77                     78
                      A                      A                      A
 Frequencies --   1527.0870              1527.1676              1527.2395
 Red. masses --      2.0838                 2.0887                 2.0762
 Frc consts  --      2.8630                 2.8701                 2.8532
 IR Inten    --     49.0224                29.9476                63.0253

                     79                     80                     81
                      A                      A                      A
 Frequencies --   1611.0454              1611.2828              1611.3055
 Red. masses --      6.6449                 6.6624                 6.6631
 Frc consts  --     10.1615                10.1911                10.1926
 IR Inten    --      3.8739                 3.8180                 3.7989

                     82                     83                     84
                      A                      A                      A
 Frequencies --   1633.4374              1633.4654              1634.5008
 Red. masses --      5.4303                 5.4250                 5.4927
 Frc consts  --      8.5365                 8.5284                 8.6459
 IR Inten    --     29.7434                29.7386                13.1226

                     85                     86                     87
                      A                      A                      A
 Frequencies --   3188.0517              3188.1525              3188.1930
 Red. masses --      1.0892                 1.0892                 1.0892
 Frc consts  --      6.5227                 6.5230                 6.5229
 IR Inten    --      5.5379                 4.5339                 2.6144

                     88                     89                     90
                      A                      A                      A
 Frequencies --   3205.5819              3206.0061              3206.5628
 Red. masses --      1.0879                 1.0878                 1.0878
 Frc consts  --      6.5863                 6.5876                 6.5901
 IR Inten    --      0.8534                 0.8581                 0.6606

                     91                     92                     93
                      A                      A                      A
 Frequencies --   3222.6194              3222.6609              3222.7876
 Red. masses --      1.0937                 1.0937                 1.0937
 Frc consts  --      6.6923                 6.6925                 6.6926
 IR Inten    --      2.4132                 2.6379                 9.6035

                     94                     95                     96
                      A                      A                      A
 Frequencies --   3223.6672              3223.7095              3223.9510
 Red. masses --      1.0939                 1.0939                 1.0941
 Frc consts  --      6.6979                 6.6982                 6.7004
 IR Inten    --      5.6412                 5.5987                 0.0996

 - Thermochemistry -
 -------------------
 Temperature   298.150 Kelvin.  Pressure   1.00000 Atm.
 Atom     1 has atomic number  6 and mass  12.00000

 Molecular mass:   363.97422 amu.
 Principal axes and moments of inertia in atomic units:
                           1         2         3
     Eigenvalues --  ******************************
           X            0.99982   0.01884  -0.00001
           Y           -0.01884   0.99982  -0.00000
           Z            0.00001   0.00000   1.00000
 This molecule is an asymmetric top.
 Rotational symmetry number  1.
 Warning -- assumption of classical behavior for rotation
           may cause significant error
 Rotational temperatures (Kelvin)      0.00723     0.00723     0.00405
 Rotational constants (GHZ):           0.15064     0.15059     0.08440
 Zero-point vibrational energy     643789.4 (Joules/Mol)
                                  153.86935 (Kcal/Mol)
 Warning -- explicit consideration of  30 degrees of freedom as
           vibrations may cause significant error
 Vibrational temperatures:     33.23    33.86    42.90    43.39    55.29
          (Kelvin)             58.15   157.31   169.27   169.42   260.51
                              269.58   269.91   379.95   422.63   422.70
                              447.30   472.96   473.19   552.54   552.68
                              596.79   596.87   599.70   614.19   718.71
                              733.07   733.11   764.94   789.71   789.77
                              927.10   927.14   928.49  1033.47  1033.58
                             1034.11  1073.46  1081.44  1081.52  1199.60
                             1200.28  1200.43  1217.14  1217.29  1221.58
                             1395.12  1395.27  1395.72  1400.62  1400.83
                             1405.36  1479.01  1479.09  1481.41  1579.35
                             1579.50  1584.78  1608.79  1609.13  1613.07
                             1639.21  1639.49  1639.57  1753.92  1754.59
                             1756.49  1896.79  1902.44  1902.60  1923.87
                             1924.50  1924.77  2056.78  2057.42  2057.63
                             2197.14  2197.25  2197.36  2317.93  2318.28
                             2318.31  2350.15  2350.19  2351.68  4586.90
                             4587.04  4587.10  4612.12  4612.73  4613.53
                             4636.63  4636.69  4636.87  4638.14  4638.20
                             4638.55

 Zero-point correction=                           0.245206 (Hartree/Particle)
 Thermal correction to Energy=                    0.264849
 Thermal correction to Enthalpy=                  0.265793
 Thermal correction to Gibbs Free Energy=         0.192397
 Sum of electronic and zero-point Energies=          -2414.841042
 Sum of electronic and thermal Energies=             -2414.821400
 Sum of electronic and thermal Enthalpies=           -2414.820455
 Sum of electronic and thermal Free Energies=        -2414.893851

                     E (Thermal)             CV                S
                      KCal/Mol        Cal/Mol-Kelvin    Cal/Mol-Kelvin
 Total                  166.195             74.118            154.475
 Electronic               0.000              0.000              0.000
 Translational            0.889              2.981             43.569
 Rotational               0.889              2.981             36.372
 Vibrational            164.418             68.156             74.534
 Vibration     1          0.593              1.985              6.348
 Vibration     2          0.593              1.985              6.311
 Vibration     3          0.594              1.984              5.842
 Vibration     4          0.594              1.984              5.819
 Vibration     5          0.594              1.982              5.339
 Vibration     6          0.594              1.981              5.239
 Vibration     7          0.606              1.942              3.281
 Vibration     8          0.608              1.935              3.139
 Vibration     9          0.608              1.935              3.137
 Vibration    10          0.630              1.865              2.317
 Vibration    11          0.632              1.857              2.254
 Vibration    12          0.632              1.857              2.251
 Vibration    13          0.671              1.739              1.635
 Vibration    14          0.689              1.685              1.452
 Vibration    15          0.689              1.685              1.452
 Vibration    16          0.700              1.653              1.358
 Vibration    17          0.712              1.618              1.266
 Vibration    18          0.712              1.618              1.266
 Vibration    19          0.753              1.504              1.023
 Vibration    20          0.753              1.504              1.023
 Vibration    21          0.778              1.438              0.910
 Vibration    22          0.778              1.438              0.910
 Vibration    23          0.780              1.434              0.903
 Vibration    24          0.789              1.412              0.869
 Vibration    25          0.855              1.251              0.659
 Vibration    26          0.865              1.229              0.635
 Vibration    27          0.865              1.229              0.635
 Vibration    28          0.887              1.180              0.584
 Vibration    29          0.904              1.142              0.547
 Vibration    30          0.904              1.142              0.546

                           ! Non-Optimized Parameters !
 Normal termination of Gaussian 16 at Sun Aug 23 01:25:01 2020.
 Gaussian 16:  ES64L-G16RevA.03 25-Dec-2016

 ----------------------------------------------------------------------
 # TD(NStates=10, Root=1) B3LYP/6-31G* scf=qc volume pop=NPA density=cu
 rrent Geom=AllCheck Guess=Read
 ----------------------------------------------------------------------

 Structure from the checkpoint file:  "phosphine_11_conf173.chk"
 -------------------
 Title Card Required
 -------------------
 Charge =  0 Multiplicity = 1

                         Standard orientation:
 ---------------------------------------------------------------------
 Center     Atomic      Atomic             Coordinates (Angstroms)
 Number     Number       Type             X           Y           Z
 ---------------------------------------------------------------------
      1          6           0       -2.176287   -3.417337    0.853993
      2          6           0       -1.319792   -2.448356    1.373456
      3          6           0       -1.155753   -1.203883    0.742476
      4          6           0       -1.896634   -0.945779   -0.420526
      5          6           0       -2.767485   -1.900816   -0.947172
      6          6           0       -2.896096   -3.131723   -0.305938
      7         17           0       -3.989780   -4.339818   -0.964009
      8         15           0        0.000303   -0.000231    1.547479
      9          6           0        1.620797   -0.399271    0.742474
     10          6           0        1.768158   -1.171691   -0.419296
     11          6           0        3.030816   -1.447976   -0.945819
     12          6           0        4.160793   -0.941736   -0.305741
     13          6           0        4.047795   -0.173786    0.852985
     14          6           0        2.780282    0.083030    1.372380
     15         17           0        5.754041   -1.284294   -0.963698
     16          6           0       -0.464416    1.602740    0.742567
     17          6           0       -1.462539    2.365237    1.371975
     18          6           0       -1.874014    3.591288    0.852554
     19          6           0       -1.264892    4.073601   -0.305681
     20          6           0       -0.260796    3.348646   -0.945240
     21          6           0        0.131388    2.117050   -0.418705
     22         17           0       -1.765045    5.624607   -0.963671
     23          1           0       -2.293858   -4.376881    1.346320
     24          1           0       -0.774084   -2.664755    2.288727
     25          1           0       -1.801776    0.011268   -0.924261
     26          1           0       -3.339207   -1.692962   -1.845642
     27          1           0        0.892172   -1.569729   -0.922176
     28          1           0        3.137007   -2.048397   -1.843335
     29          1           0        4.937325    0.205858    1.344449
     30          1           0        2.694543    0.665228    2.286735
     31          1           0       -1.924329    1.999547    2.285962
     32          1           0       -2.648102    4.171425    1.343630
     33          1           0        0.206510    3.741159   -1.842388
     34          1           0        0.914630    1.557878   -0.921224
 ---------------------------------------------------------------------

 SCF Done:  E(RB3LYP) =  -2415.08624873     a.u. after    1 cycles

 Excitation energies and oscillator strengths:

 Excited State   1:      Singlet-A      4.4056 eV  281.42 nm  f=0.1832  <S**2>=0.000
      93 -> 94         0.69578
 This state for optimization and/or second-order correction.
 Total Energy, E(TD-HF/TD-DFT) =  -2414.92434545
 Copying the excited state density for this state as the 1-particle RhoCI density.

 Excited State   2:      Singlet-A      4.4067 eV  281.35 nm  f=0.1838  <S**2>=0.000
      93 -> 95         0.69577

 Excited State   3:      Singlet-A      4.6120 eV  268.83 nm  f=0.0036  <S**2>=0.000
      89 -> 94         0.11008
      90 -> 95        -0.11030
      93 -> 96         0.67970

 Excited State   4:      Singlet-A      4.9175 eV  252.13 nm  f=0.0001  <S**2>=0.000
      88 -> 94         0.11778
      89 -> 97         0.10052
      93 -> 98         0.64562

 Excited State   5:      Singlet-A      4.9180 eV  252.10 nm  f=0.0001  <S**2>=0.000
      88 -> 95         0.11766
      90 -> 97        -0.10091
      93 -> 99         0.64538

 Excited State   6:      Singlet-A      5.0223 eV  246.87 nm  f=0.0089  <S**2>=0.000
      91 -> 94        -0.11466
      92 -> 95        -0.11487
      93 -> 97         0.66879

 Excited State   7:      Singlet-A      5.2595 eV  235.73 nm  f=0.0017  <S**2>=0.000
      89 -> 94         0.13228
      90 -> 95        -0.13079
      91 -> 94         0.25323
      91 -> 95        -0.36423
      91 -> 98         0.12285
      92 -> 94         0.36659
      92 -> 95         0.25278
      92 -> 99         0.12174
      93 -> 96        -0.10398

 Excited State   8:      Singlet-A      5.3614 eV  231.25 nm  f=0.0051  <S**2>=0.000
      88 -> 94         0.19132
      89 -> 94         0.11039
      89 -> 95         0.15823
      89 -> 97         0.11233
      90 -> 94        -0.15814
      90 -> 95         0.11023
      91 -> 94         0.14342
      91 -> 96         0.37445
      91 -> 98         0.14855
      92 -> 95        -0.14485
      92 -> 96        -0.23502
      92 -> 99        -0.14858
      93 -> 98        -0.22806

 Excited State   9:      Singlet-A      5.3618 eV  231.23 nm  f=0.0050  <S**2>=0.000
      88 -> 95         0.19030
      89 -> 94         0.15826
      89 -> 95        -0.11010
      90 -> 94         0.11043
      90 -> 95         0.15781
      90 -> 97        -0.11236
      91 -> 95        -0.14265
      91 -> 96         0.23417
      91 -> 99        -0.14762
      92 -> 94        -0.14488
      92 -> 96         0.37570
      92 -> 98        -0.14887
      93 -> 99        -0.22849

 Excited State  10:      Singlet-A      5.4213 eV  228.70 nm  f=0.1613  <S**2>=0.000
      91 -> 95         0.46198
      92 -> 94         0.46382
      92 -> 96         0.13578

 The electronic state is 1-A.
 Alpha  occ. eigenvalues -- -101.55493-101.55492-101.55491 -77.10094 -10.26330
 Alpha  occ. eigenvalues --  -10.26328 -10.26327 -10.21418 -10.21418 -10.21417
 Alpha  occ. eigenvalues --  -10.21367 -10.21367 -10.21366 -10.21347 -10.21346
 Alpha  occ. eigenvalues --  -10.21345 -10.21313 -10.21312 -10.21311 -10.21249
 Alpha  occ. eigenvalues --  -10.21248 -10.21247  -9.47125  -9.47124  -9.47123
 Alpha  occ. eigenvalues --   -7.23520  -7.23519  -7.23518  -7.22555  -7.22554
 Alpha  occ. eigenvalues --   -7.22553  -7.22518  -7.22517  -7.22516  -6.56809
 Alpha  occ. eigenvalues --   -4.73069  -4.73069  -4.72564  -0.89964  -0.89791
 Alpha  occ. eigenvalues --   -0.89790  -0.85153  -0.84237  -0.84236  -0.76898
 Alpha  occ. eigenvalues --   -0.76780  -0.76779  -0.76742  -0.73906  -0.73905
 Alpha  occ. eigenvalues --   -0.65058  -0.63150  -0.62986  -0.62986  -0.60497
 Alpha  occ. eigenvalues --   -0.60496  -0.57615  -0.52431  -0.52430  -0.49747
 Alpha  occ. eigenvalues --   -0.48088  -0.47998  -0.47998  -0.47167  -0.47166
 Alpha  occ. eigenvalues --   -0.46321  -0.44340  -0.44246  -0.44245  -0.42725
 Alpha  occ. eigenvalues --   -0.42724  -0.40319  -0.40238  -0.40237  -0.39581
 Alpha  occ. eigenvalues --   -0.37219  -0.37219  -0.37129  -0.35189  -0.35188
 Alpha  occ. eigenvalues --   -0.34134  -0.33460  -0.33459  -0.31867  -0.31862
 Alpha  occ. eigenvalues --   -0.31861  -0.27683  -0.27413  -0.27143  -0.27141
 Alpha  occ. eigenvalues --   -0.25830  -0.25827  -0.22678
 Alpha virt. eigenvalues --   -0.03958  -0.03955  -0.03032  -0.01964  -0.01787
 Alpha virt. eigenvalues --   -0.01785   0.02242   0.02243   0.02402   0.05591
 Alpha virt. eigenvalues --    0.05595   0.10343   0.12154   0.12345   0.12346

 Mulliken charges:
               1
     1  C   -0.125829
     2  C   -0.164114
     3  C   -0.123643
     4  C   -0.175575
     5  C   -0.115909
     6  C   -0.100822
     7  Cl  -0.044781
     8  P    0.446507
     9  C   -0.113443
    10  C   -0.155793
    11  C   -0.122003
    12  C   -0.084590
    13  C   -0.115450
    14  C   -0.172345
    15  Cl  -0.017205
    16  C   -0.078580
    17  C   -0.152791
    18  C   -0.118372
    19  C   -0.065544
    20  C   -0.114418
    21  C   -0.152839
    22  Cl   0.012744
    23  H    0.144522
    24  H    0.130807
    25  H    0.130140
    26  H    0.146782
    27  H    0.168596
    28  H    0.159836
    29  H    0.155096
    30  H    0.139976
    31  H    0.161998
    32  H    0.169527
    33  H    0.172430
    34  H    0.175085
 Sum of Mulliken charges =  -0.00000

 Dipole moment (field-independent basis, Debye):
    X=              0.8520    Y=              4.1050    Z=              1.9736  Tot=              4.6338
 Quadrupole moment (field-independent basis, Debye-Ang):
   XX=           -171.6429   YY=           -163.4710   ZZ=           -145.0323
   XY=             -7.9731   XZ=             -0.8541   YZ=             -0.5821

 Summary of Natural Population Analysis:

                                       Natural Population
                Natural  -----------------------------------------------
    Atom  No    Charge         Core      Valence    Rydberg      Total
 -----------------------------------------------------------------------
      C    1   -0.26452      1.99894     4.24893    0.01665     6.26452
      C    2   -0.21042      1.99901     4.19545    0.01597     6.21042
      C    3   -0.47343      1.99886     4.44986    0.02471     6.47343
      C    4   -0.25498      1.99899     4.23826    0.01773     6.25498
      C    5   -0.23966      1.99893     4.22501    0.01572     6.23966
      C    6   -0.09187      1.99854     4.07113    0.02220     6.09187
     Cl    7   -0.01742      9.99967     6.99727    0.02048    17.01742
      P    8    1.21205      9.99758     3.74052    0.04985    13.78795
      C    9   -0.44437      1.99889     4.41928    0.02620     6.44437
      C   10   -0.20862      1.99899     4.19284    0.01680     6.20862
      C   11   -0.25046      1.99893     4.23564    0.01589     6.25046
      C   12   -0.05831      1.99854     4.03748    0.02229     6.05831
      C   13   -0.24534      1.99894     4.23080    0.01560     6.24534
      C   14   -0.21987      1.99902     4.20495    0.01591     6.21987
     Cl   15    0.00354      9.99967     6.97676    0.02003    16.99646
      C   16   -0.37718      1.99890     4.35399    0.02430     6.37718
      C   17   -0.18632      1.99902     4.17226    0.01505     6.18632
      C   18   -0.25050      1.99893     4.23593    0.01564     6.25050
      C   19   -0.01944      1.99855     3.99864    0.02226     6.01944
      C   20   -0.23698      1.99892     4.22291    0.01514     6.23698
      C   21   -0.20552      1.99899     4.19033    0.01620     6.20552
     Cl   22    0.02580      9.99967     6.95518    0.01935    16.97420
      H   23    0.24958      0.00000     0.74939    0.00104     0.75042
      H   24    0.23442      0.00000     0.76457    0.00101     0.76558
      H   25    0.23639      0.00000     0.76221    0.00140     0.76361
      H   26    0.25066      0.00000     0.74829    0.00105     0.74934
      H   27    0.25764      0.00000     0.74091    0.00145     0.74236
      H   28    0.25701      0.00000     0.74193    0.00106     0.74299
      H   29    0.25380      0.00000     0.74510    0.00110     0.74620
      H   30    0.23806      0.00000     0.76096    0.00098     0.76194
      H   31    0.25075      0.00000     0.74805    0.00120     0.74925
      H   32    0.26112      0.00000     0.73784    0.00104     0.73888
      H   33    0.26268      0.00000     0.73627    0.00105     0.73732
      H   34    0.26173      0.00000     0.73708    0.00119     0.73827
 =======================================================================
   * Total *    0.00000     75.97648   109.56602    0.45750   186.00000

 Normal termination of Gaussian 16 at Sun Aug 23 01:43:52 2020.
