 Gaussian 16, Revision A.03,

 ---------------------------------
 # opt=CalcAll B3LYP/6-31G* scf=qc
 ---------------------------------

 -------------------
 Title Card Required
 -------------------
 Symbolic Z-matrix:
 Charge =  0 Multiplicity = 1

 SCF Done:  E(RB3LYP) =  -814.898692799     a.u. after    7 cycles
 SCF Done:  E(RB3LYP) =  -814.909860512     a.u. after   11 cycles
 SCF Done:  E(RB3LYP) =  -814.911534742     a.u. after   11 cycles
 SCF Done:  E(RB3LYP) =  -814.911790466     a.u. after    9 cycles
 SCF Done:  E(RB3LYP) =  -814.911825418     a.u. after    7 cycles
 SCF Done:  E(RB3LYP) =  -814.911836528     a.u. after    5 cycles
 SCF Done:  E(RB3LYP) =  -814.911841425     a.u. after    5 cycles
 SCF Done:  E(RB3LYP) =  -814.911843044     a.u. after    3 cycles
 SCF Done:  E(RB3LYP) =  -814.911842787     a.u. after    2 cycles
 Optimization completed.
    -- Stationary point found.
 Normal termination of Gaussian 16 at Sun Aug 23 06:15:21 2020.

 ----------------------------------------------------------------------
 # freq B3LYP/6-31G* scf=qc volume NMR pop=NPA density=current Geom=All
 Check Guess=Read
 ----------------------------------------------------------------------

 Structure from the checkpoint file:  "phosphine_2_conf122.chk"
 -------------------
 Title Card Required
 -------------------
 Charge =  0 Multiplicity = 1

 SCF Done:  E(RB3LYP) =  -814.911842787     a.u. after    1 cycles

      1  C    Isotropic =   173.7276   Anisotropy =    24.0994

      2  C    Isotropic =   162.3539   Anisotropy =    22.7160

      3  C    Isotropic =   165.7979   Anisotropy =    19.4558

      4  C    Isotropic =   165.4348   Anisotropy =    34.7562

      5  H    Isotropic =    30.7260   Anisotropy =     6.5367

      6  H    Isotropic =    30.7631   Anisotropy =     6.3344

      7  P    Isotropic =   400.7809   Anisotropy =    40.3633

      8  C    Isotropic =   163.3289   Anisotropy =    26.4656

      9  H    Isotropic =    30.2025   Anisotropy =     4.9926

     10  H    Isotropic =    31.3560   Anisotropy =     6.9305

     11  C    Isotropic =   161.2185   Anisotropy =    20.6035

     12  C    Isotropic =   163.4118   Anisotropy =    17.8853

     13  C    Isotropic =   175.6205   Anisotropy =    18.5859

     14  C    Isotropic =   161.2874   Anisotropy =    27.3006

     15  H    Isotropic =    31.0068   Anisotropy =     6.5630

     16  H    Isotropic =    30.2181   Anisotropy =     5.0140

     17  C    Isotropic =   160.6626   Anisotropy =    25.5563

     18  C    Isotropic =   164.7310   Anisotropy =    15.9764

     19  C    Isotropic =   173.5613   Anisotropy =    24.7562

     20  H    Isotropic =    31.0100   Anisotropy =    10.5894

     21  H    Isotropic =    31.2085   Anisotropy =     7.5403

     22  H    Isotropic =    31.2081   Anisotropy =     7.6699

     23  H    Isotropic =    30.7579   Anisotropy =     6.1960

     24  H    Isotropic =    30.7553   Anisotropy =     6.3708

     25  H    Isotropic =    30.7435   Anisotropy =     5.2795

     26  H    Isotropic =    30.7727   Anisotropy =     6.4933

     27  H    Isotropic =    30.7851   Anisotropy =     4.4314

     28  H    Isotropic =    30.4580   Anisotropy =     6.7848

     29  H    Isotropic =    30.4585   Anisotropy =     9.3779

     30  H    Isotropic =    30.7551   Anisotropy =     7.5607

     31  H    Isotropic =    31.4620   Anisotropy =     7.4537

     32  H    Isotropic =    31.1332   Anisotropy =    10.4682

     33  H    Isotropic =    30.9412   Anisotropy =     5.5161

     34  H    Isotropic =    30.7023   Anisotropy =     4.5835

     35  H    Isotropic =    30.5513   Anisotropy =     7.6478

     36  H    Isotropic =    30.9188   Anisotropy =     6.6872

     37  H    Isotropic =    30.1527   Anisotropy =     5.8259

     38  H    Isotropic =    31.3109   Anisotropy =     8.4624

     39  H    Isotropic =    31.0698   Anisotropy =    10.2571

     40  H    Isotropic =    31.3405   Anisotropy =     7.6040

  Exact polarizability: 177.644  -1.116 154.549  -1.959  -1.157 128.886
 Approx polarizability: 213.647  -2.621 209.237  -5.296  -6.010 200.133

                      1                      2                      3
                      A                      A                      A
 Frequencies --     17.8091                30.3295                39.3472
 Red. masses --      3.3993                 3.1580                 2.3675
 Frc consts  --      0.0006                 0.0017                 0.0022
 IR Inten    --      0.0237                 0.0049                 0.0023

                      4                      5                      6
                      A                      A                      A
 Frequencies --     50.1559                59.6208                69.4792
 Red. masses --      1.7085                 2.8651                 1.6287
 Frc consts  --      0.0025                 0.0060                 0.0046
 IR Inten    --      0.0197                 0.0252                 0.0606

                      7                      8                      9
                      A                      A                      A
 Frequencies --     96.8766               104.7847               122.1233
 Red. masses --      2.8166                 2.7159                 3.0943
 Frc consts  --      0.0156                 0.0176                 0.0272
 IR Inten    --      0.0495                 0.3276                 0.1458

                     10                     11                     12
                      A                      A                      A
 Frequencies --    131.3966               158.9399               195.5875
 Red. masses --      2.1111                 1.8955                 2.0517
 Frc consts  --      0.0215                 0.0282                 0.0462
 IR Inten    --      0.0052                 0.4043                 0.0155

                     13                     14                     15
                      A                      A                      A
 Frequencies --    219.2801               241.2018               248.6137
 Red. masses --      1.8336                 1.6091                 1.3613
 Frc consts  --      0.0519                 0.0552                 0.0496
 IR Inten    --      0.1128                 0.1827                 0.0172

                     16                     17                     18
                      A                      A                      A
 Frequencies --    249.3641               256.8735               281.1786
 Red. masses --      1.4571                 1.9600                 2.1509
 Frc consts  --      0.0534                 0.0762                 0.1002
 IR Inten    --      0.1109                 0.0062                 0.1465

                     19                     20                     21
                      A                      A                      A
 Frequencies --    299.2816               324.4425               351.4642
 Red. masses --      1.8176                 2.8433                 4.0012
 Frc consts  --      0.0959                 0.1763                 0.2912
 IR Inten    --      0.4606                 0.1380                 0.3267

                     22                     23                     24
                      A                      A                      A
 Frequencies --    411.0733               436.8691               482.7007
 Red. masses --      2.6966                 2.5576                 2.7074
 Frc consts  --      0.2685                 0.2876                 0.3717
 IR Inten    --      0.2296                 1.7149                 1.0792

                     25                     26                     27
                      A                      A                      A
 Frequencies --    635.4730               685.6685               703.1682
 Red. masses --      3.3413                 2.7883                 1.3346
 Frc consts  --      0.7950                 0.7724                 0.3888
 IR Inten    --      5.5014                 1.3703                 7.9822

                     28                     29                     30
                      A                      A                      A
 Frequencies --    729.4234               747.9847               756.4855
 Red. masses --      1.6985                 1.4609                 1.2512
 Frc consts  --      0.5325                 0.4816                 0.4219
 IR Inten    --     10.0057                 7.7236                 1.6795

                     31                     32                     33
                      A                      A                      A
 Frequencies --    769.7340               796.4745               803.9981
 Red. masses --      1.2750                 1.3451                 1.6690
 Frc consts  --      0.4451                 0.5027                 0.6357
 IR Inten    --      3.2665                 1.4243                 5.2088

                     34                     35                     36
                      A                      A                      A
 Frequencies --    874.6648               890.3094               895.1094
 Red. masses --      2.4102                 1.4542                 1.2981
 Frc consts  --      1.0864                 0.6791                 0.6128
 IR Inten    --      0.3608                 3.1475                 0.9273

                     37                     38                     39
                      A                      A                      A
 Frequencies --    903.5010               929.1285               935.3984
 Red. masses --      1.7694                 1.4580                 1.3409
 Frc consts  --      0.8510                 0.7416                 0.6912
 IR Inten    --      2.6183                 8.0567                 5.1231

                     40                     41                     42
                      A                      A                      A
 Frequencies --    985.0590              1013.7606              1021.4202
 Red. masses --      2.0386                 2.7313                 3.5779
 Frc consts  --      1.1655                 1.6538                 2.1993
 IR Inten    --      5.0681                 2.2200                 3.0924

                     43                     44                     45
                      A                      A                      A
 Frequencies --   1055.3635              1062.7187              1067.9715
 Red. masses --      1.1695                 2.5052                 1.9367
 Frc consts  --      0.7675                 1.6670                 1.3015
 IR Inten    --      2.4987                 0.3871                 0.4715

                     46                     47                     48
                      A                      A                      A
 Frequencies --   1073.2649              1084.5692              1092.0299
 Red. masses --      1.6644                 1.5874                 1.4503
 Frc consts  --      1.1296                 1.1001                 1.0190
 IR Inten    --      1.4978                 3.9608                 7.9334

                     49                     50                     51
                      A                      A                      A
 Frequencies --   1109.1725              1121.6004              1126.5977
 Red. masses --      1.5571                 1.9539                 1.8341
 Frc consts  --      1.1287                 1.4482                 1.3716
 IR Inten    --      5.6846                 7.1803                 5.7590

                     52                     53                     54
                      A                      A                      A
 Frequencies --   1222.4865              1230.4195              1244.3915
 Red. masses --      1.4709                 1.4791                 1.4568
 Frc consts  --      1.2951                 1.3193                 1.3291
 IR Inten    --      0.2997                 1.8204                 1.0371

                     55                     56                     57
                      A                      A                      A
 Frequencies --   1252.9087              1258.0377              1269.6130
 Red. masses --      1.4041                 1.3748                 1.3460
 Frc consts  --      1.2986                 1.2820                 1.2783
 IR Inten    --      1.4545                 0.5714                 0.1559

                     58                     59                     60
                      A                      A                      A
 Frequencies --   1315.6217              1321.4148              1325.5536
 Red. masses --      1.2191                 1.2449                 1.1891
 Frc consts  --      1.2433                 1.2807                 1.2310
 IR Inten    --      1.2293                 2.2620                 1.1641

                     61                     62                     63
                      A                      A                      A
 Frequencies --   1336.7488              1344.6569              1349.1013
 Red. masses --      1.1570                 1.2708                 1.0815
 Frc consts  --      1.2181                 1.3537                 1.1597
 IR Inten    --      7.3507                 7.8103                 0.8307

                     64                     65                     66
                      A                      A                      A
 Frequencies --   1351.4393              1352.7475              1395.4184
 Red. masses --      1.1353                 1.3013                 1.4199
 Frc consts  --      1.2217                 1.4030                 1.6290
 IR Inten    --      0.6899                 2.8856                 2.4589

                     67                     68                     69
                      A                      A                      A
 Frequencies --   1397.7985              1407.9752              1417.9281
 Red. masses --      1.3441                 1.4914                 1.5313
 Frc consts  --      1.5473                 1.7419                 1.8139
 IR Inten    --      7.7630                 2.8013                 3.2521

                     70                     71                     72
                      A                      A                      A
 Frequencies --   1440.4705              1440.8251              1442.1734
 Red. masses --      1.2420                 1.2418                 1.2603
 Frc consts  --      1.5184                 1.5189                 1.5444
 IR Inten    --      1.6212                 1.0636                 5.9728

                     73                     74                     75
                      A                      A                      A
 Frequencies --   1491.3923              1493.0237              1501.6884
 Red. masses --      1.0837                 1.0860                 1.0878
 Frc consts  --      1.4202                 1.4263                 1.4453
 IR Inten    --      4.0076                 3.4568                 8.1328

                     76                     77                     78
                      A                      A                      A
 Frequencies --   1514.0779              1517.1469              1519.1566
 Red. masses --      1.0731                 1.0676                 1.0632
 Frc consts  --      1.4494                 1.4478                 1.4457
 IR Inten    --      0.5238                 0.9152                 0.8908

                     79                     80                     81
                      A                      A                      A
 Frequencies --   1520.7321              1525.5551              1527.4993
 Red. masses --      1.0778                 1.0683                 1.0696
 Frc consts  --      1.4686                 1.4649                 1.4704
 IR Inten    --      1.2218                 0.6402                 1.5598

                     82                     83                     84
                      A                      A                      A
 Frequencies --   1529.8235              1529.9751              1532.8550
 Red. masses --      1.0412                 1.0412                 1.0555
 Frc consts  --      1.4357                 1.4359                 1.4612
 IR Inten    --      5.6537                 6.0499                 5.4978

                     85                     86                     87
                      A                      A                      A
 Frequencies --   1538.2537              1540.1167              1541.6877
 Red. masses --      1.0608                 1.0819                 1.0844
 Frc consts  --      1.4789                 1.5120                 1.5185
 IR Inten    --      7.1476                 2.1123                 3.7715

                     88                     89                     90
                      A                      A                      A
 Frequencies --   3015.7492              3021.9046              3023.6471
 Red. masses --      1.0596                 1.0608                 1.0590
 Frc consts  --      5.6777                 5.7075                 5.7042
 IR Inten    --     18.3620                 3.2588                14.3709

                     91                     92                     93
                      A                      A                      A
 Frequencies --   3026.0117              3026.6600              3029.7980
 Red. masses --      1.0634                 1.0629                 1.0667
 Frc consts  --      5.7373                 5.7370                 5.7693
 IR Inten    --     25.9963                 4.3301                11.7395

                     94                     95                     96
                      A                      A                      A
 Frequencies --   3030.0435              3032.0421              3037.5754
 Red. masses --      1.0630                 1.0600                 1.0575
 Frc consts  --      5.7499                 5.7416                 5.7488
 IR Inten    --     16.8005                10.6659                38.2904

                     97                     98                     99
                      A                      A                      A
 Frequencies --   3039.4988              3041.5851              3042.5463
 Red. masses --      1.0371                 1.0405                 1.0383
 Frc consts  --      5.6450                 5.6715                 5.6632
 IR Inten    --     43.0036                40.6860                32.1733

                    100                    101                    102
                      A                      A                      A
 Frequencies --   3046.8334              3048.5678              3058.2351
 Red. masses --      1.0940                 1.0951                 1.0962
 Frc consts  --      5.9835                 5.9963                 6.0407
 IR Inten    --     30.9019                22.1007                13.5711

                    103                    104                    105
                      A                      A                      A
 Frequencies --   3060.1154              3062.5073              3071.2525
 Red. masses --      1.1018                 1.1021                 1.1016
 Frc consts  --      6.0788                 6.0900                 6.1221
 IR Inten    --     24.9161                 3.0463                12.7143

                    106                    107                    108
                      A                      A                      A
 Frequencies --   3075.2658              3080.2046              3084.1401
 Red. masses --      1.1012                 1.1036                 1.1040
 Frc consts  --      6.1361                 6.1689                 6.1870
 IR Inten    --     27.7565                64.4985                47.5121

                    109                    110                    111
                      A                      A                      A
 Frequencies --   3104.6886              3105.8192              3106.3614
 Red. masses --      1.1029                 1.1019                 1.1023
 Frc consts  --      6.2633                 6.2623                 6.2671
 IR Inten    --     68.0628                69.8678                52.3083

                    112                    113                    114
                      A                      A                      A
 Frequencies --   3110.5331              3110.6108              3114.8750
 Red. masses --      1.1015                 1.1018                 1.1018
 Frc consts  --      6.2790                 6.2812                 6.2985
 IR Inten    --     48.9263                34.2420                52.6540

 - Thermochemistry -
 -------------------
 Temperature   298.150 Kelvin.  Pressure   1.00000 Atm.
 Atom     1 has atomic number  6 and mass  12.00000

 Molecular mass:   202.18504 amu.
 Principal axes and moments of inertia in atomic units:
                           1         2         3
     Eigenvalues --  2916.109265323.095057516.51188
           X            1.00000  -0.00032   0.00229
           Y            0.00033   0.99999  -0.00325
           Z           -0.00229   0.00325   0.99999
 This molecule is an asymmetric top.
 Rotational symmetry number  1.
 Warning -- assumption of classical behavior for rotation
           may cause significant error
 Rotational temperatures (Kelvin)      0.02970     0.01627     0.01152
 Rotational constants (GHZ):           0.61889     0.33904     0.24010
 Zero-point vibrational energy     976730.7 (Joules/Mol)
                                  233.44425 (Kcal/Mol)
 Warning -- explicit consideration of  24 degrees of freedom as
           vibrations may cause significant error
 Vibrational temperatures:     25.62    43.64    56.61    72.16    85.78
          (Kelvin)             99.97   139.38   150.76   175.71   189.05
                              228.68   281.41   315.50   347.04   357.70
                              358.78   369.58   404.55   430.60   466.80
                              505.68   591.44   628.56   694.50   914.30
                              986.52  1011.70  1049.48  1076.18  1088.41
                             1107.48  1145.95  1156.77  1258.45  1280.96
                             1287.86  1299.94  1336.81  1345.83  1417.28
                             1458.58  1469.60  1518.43  1529.02  1536.57
                             1544.19  1560.45  1571.19  1595.85  1613.73
                             1620.92  1758.89  1770.30  1790.40  1802.66
                             1810.04  1826.69  1892.89  1901.22  1907.18
                             1923.28  1934.66  1941.06  1944.42  1946.30
                             2007.70  2011.12  2025.76  2040.08  2072.52
                             2073.03  2074.97  2145.78  2148.13  2160.59
                             2178.42  2182.84  2185.73  2187.99  2194.93
                             2197.73  2201.07  2201.29  2205.44  2213.20
                             2215.88  2218.14  4338.99  4347.85  4350.35
                             4353.76  4354.69  4359.20  4359.56  4362.43
                             4370.39  4373.16  4376.16  4377.55  4383.71
                             4386.21  4400.12  4402.82  4406.26  4418.85
                             4424.62  4431.73  4437.39  4466.95  4468.58
                             4469.36  4475.36  4475.48  4481.61

 Zero-point correction=                           0.372017 (Hartree/Particle)
 Thermal correction to Energy=                    0.390716
 Thermal correction to Enthalpy=                  0.391660
 Thermal correction to Gibbs Free Energy=         0.322512
 Sum of electronic and zero-point Energies=           -814.539826
 Sum of electronic and thermal Energies=              -814.521127
 Sum of electronic and thermal Enthalpies=            -814.520183
 Sum of electronic and thermal Free Energies=         -814.589331

                     E (Thermal)             CV                S
                      KCal/Mol        Cal/Mol-Kelvin    Cal/Mol-Kelvin
 Total                  245.178             66.319            145.534
 Electronic               0.000              0.000              0.000
 Translational            0.889              2.981             41.817
 Rotational               0.889              2.981             33.123
 Vibrational            243.401             60.357             70.595
 Vibration     1          0.593              1.986              6.865
 Vibration     2          0.594              1.984              5.808
 Vibration     3          0.594              1.981              5.292
 Vibration     4          0.595              1.978              4.811
 Vibration     5          0.597              1.974              4.470
 Vibration     6          0.598              1.969              4.168
 Vibration     7          0.603              1.951              3.516
 Vibration     8          0.605              1.945              3.363
 Vibration     9          0.610              1.931              3.066
 Vibration    10          0.612              1.922              2.925
 Vibration    11          0.621              1.893              2.562
 Vibration    12          0.636              1.846              2.174
 Vibration    13          0.647              1.812              1.965
 Vibration    14          0.658              1.777              1.794
 Vibration    15          0.662              1.765              1.740
 Vibration    16          0.662              1.764              1.735
 Vibration    17          0.666              1.751              1.683
 Vibration    18          0.681              1.708              1.526
 Vibration    19          0.692              1.675              1.421
 Vibration    20          0.709              1.627              1.288
 Vibration    21          0.728              1.572              1.160
 Vibration    22          0.775              1.446              0.923
 Vibration    23          0.797              1.390              0.837
 Vibration    24          0.839              1.288              0.703

 Optimization completed.
    -- Stationary point found.
 Normal termination of Gaussian 16 at Sun Aug 23 06:20:48 2020.
 Gaussian 16:  ES64L-G16RevA.03 25-Dec-2016

 ----------------------------------------------------------------------
 # TD(NStates=10, Root=1) B3LYP/6-31G* scf=qc volume pop=NPA density=cu
 rrent Geom=AllCheck Guess=Read
 ----------------------------------------------------------------------

 Structure from the checkpoint file:  "phosphine_2_conf123.chk"
 -------------------
 Title Card Required
 -------------------
 Charge =  0 Multiplicity = 1

                         Standard orientation:
 ---------------------------------------------------------------------
 Center     Atomic      Atomic             Coordinates (Angstroms)
 Number     Number       Type             X           Y           Z
 ---------------------------------------------------------------------
      1          6           0        1.324564    4.248323    0.516301
      2          6           0        0.726665    3.288501   -0.517605
      3          6           0        0.518872    1.866564    0.027131
      4          6           0       -0.079383    0.912616   -1.016288
      5          1           0       -1.034978    1.314557   -1.381108
      6          1           0        0.571144    0.876507   -1.901017
      7         15           0       -0.421156   -0.883312   -0.562843
      8          6           0        1.199385   -1.415277    0.223552
      9          1           0        1.471041   -0.745858    1.049506
     10          1           0        1.004536   -2.400455    0.670950
     11          6           0        2.351931   -1.538277   -0.786025
     12          6           0        3.636749   -2.157324   -0.207126
     13          6           0        4.319307   -1.313208    0.875546
     14          6           0       -1.443252   -0.700647    1.007153
     15          1           0       -1.484391   -1.701549    1.459331
     16          1           0       -0.920499   -0.058118    1.727504
     17          6           0       -2.877075   -0.183125    0.789987
     18          6           0       -3.790888   -1.138989    0.010349
     19          6           0       -5.215324   -0.599303   -0.152995
     20          1           0        1.460625    5.252423    0.098504
     21          1           0        2.303903    3.897003    0.864141
     22          1           0        0.675013    4.338969    1.395726
     23          1           0        1.380662    3.245556   -1.400116
     24          1           0       -0.235778    3.683901   -0.872192
     25          1           0       -0.133323    1.917443    0.909534
     26          1           0        1.483528    1.478403    0.381568
     27          1           0        2.590314   -0.547209   -1.198616
     28          1           0        2.017079   -2.149212   -1.635073
     29          1           0        4.345315   -2.320330   -1.030649
     30          1           0        3.405155   -3.153390    0.196567
     31          1           0        4.566355   -0.312653    0.498130
     32          1           0        5.252526   -1.781145    1.209433
     33          1           0        3.681882   -1.186849    1.757903
     34          1           0       -2.849584    0.790566    0.279267
     35          1           0       -3.328052    0.012212    1.774059
     36          1           0       -3.822393   -2.106696    0.531450
     37          1           0       -3.356541   -1.341622   -0.976664
     38          1           0       -5.687447   -0.419137    0.821042
     39          1           0       -5.848599   -1.303507   -0.704529
     40          1           0       -5.219452    0.350740   -0.701884
 ---------------------------------------------------------------------

 SCF Done:  E(RB3LYP) =  -814.911842787     a.u. after    1 cycles

 Excitation energies and oscillator strengths:

 Excited State   1:      Singlet-A      6.4675 eV  191.70 nm  f=0.1344  <S**2>=0.000
      57 -> 58         0.69329
 This state for optimization and/or second-order correction.
 Total Energy, E(TD-HF/TD-DFT) =  -814.674166999
 Copying the excited state density for this state as the 1-particle RhoCI density.

 Excited State   2:      Singlet-A      6.7299 eV  184.23 nm  f=0.0596  <S**2>=0.000
      57 -> 59         0.51440
      57 -> 60         0.46553

 Excited State   3:      Singlet-A      6.7927 eV  182.53 nm  f=0.0603  <S**2>=0.000
      57 -> 59        -0.46635
      57 -> 60         0.52051

 Excited State   4:      Singlet-A      7.6774 eV  161.49 nm  f=0.0040  <S**2>=0.000
      57 -> 61         0.65366
      57 -> 62         0.13016
      57 -> 63         0.16460
      57 -> 66        -0.12262

 Excited State   5:      Singlet-A      7.8104 eV  158.74 nm  f=0.0141  <S**2>=0.000
      57 -> 62         0.65437
      57 -> 65        -0.19775

 Excited State   6:      Singlet-A      8.0051 eV  154.88 nm  f=0.0529  <S**2>=0.000
      57 -> 61        -0.14401
      57 -> 63         0.64059
      57 -> 64        -0.12192
      57 -> 65        -0.17167
      57 -> 66         0.10007

 Excited State   7:      Singlet-A      8.1325 eV  152.45 nm  f=0.0166  <S**2>=0.000
      57 -> 61         0.16688
      57 -> 62        -0.12230
      57 -> 63        -0.17881
      57 -> 64        -0.19165
      57 -> 65        -0.41159
      57 -> 66         0.45414

 Excited State   8:      Singlet-A      8.2042 eV  151.12 nm  f=0.0023  <S**2>=0.000
      57 -> 64         0.32477
      57 -> 65         0.34589
      57 -> 66         0.48163

 Excited State   9:      Singlet-A      8.2106 eV  151.00 nm  f=0.0109  <S**2>=0.000
      57 -> 62        -0.13704
      57 -> 64         0.56920
      57 -> 65        -0.34101
      57 -> 66        -0.10226

 Excited State  10:      Singlet-A      8.3695 eV  148.14 nm  f=0.0176  <S**2>=0.000
      55 -> 58         0.51980
      56 -> 58         0.34153
      56 -> 59        -0.29078

 The electronic state is 1-A.
 Alpha  occ. eigenvalues --  -77.06262 -10.18084 -10.18034 -10.18030 -10.18027
 Alpha  occ. eigenvalues --  -10.18023 -10.17973 -10.17920 -10.17914 -10.17362
 Alpha  occ. eigenvalues --  -10.17331 -10.17225 -10.16923  -6.53035  -4.69299
 Alpha  occ. eigenvalues --   -4.69280  -4.68779  -0.80012  -0.78896  -0.78743
 Alpha  occ. eigenvalues --   -0.74165  -0.71524  -0.71396  -0.65572  -0.63052
 Alpha  occ. eigenvalues --   -0.62261  -0.58120  -0.57708  -0.56335  -0.51541
 Alpha  occ. eigenvalues --   -0.47328  -0.46014  -0.45531  -0.43881  -0.43234
 Alpha  occ. eigenvalues --   -0.42219  -0.42153  -0.41636  -0.40553  -0.39225
 Alpha  occ. eigenvalues --   -0.39057  -0.38275  -0.37116  -0.36034  -0.35557
 Alpha  occ. eigenvalues --   -0.34840  -0.34381  -0.33594  -0.33391  -0.32741
 Alpha  occ. eigenvalues --   -0.32592  -0.32502  -0.32177  -0.31626  -0.29135
 Alpha  occ. eigenvalues --   -0.28708  -0.21020
 Alpha virt. eigenvalues --    0.05564   0.06714   0.07001   0.10069   0.10657
 Alpha virt. eigenvalues --    0.11204   0.11633   0.11887   0.12056   0.13502
 Alpha virt. eigenvalues --    0.14084   0.15019   0.15162   0.15756   0.16244

 Mulliken charges:
               1
     1  C   -0.443988
     2  C   -0.249243
     3  C   -0.261433
     4  C   -0.409668
     5  H    0.168592
     6  H    0.160835
     7  P    0.323123
     8  C   -0.397899
     9  H    0.139859
    10  H    0.138206
    11  C   -0.252915
    12  C   -0.231584
    13  C   -0.423670
    14  C   -0.430766
    15  H    0.163938
    16  H    0.183545
    17  C   -0.217473
    18  C   -0.223302
    19  C   -0.438733
    20  H    0.149920
    21  H    0.148147
    22  H    0.146133
    23  H    0.139028
    24  H    0.138812
    25  H    0.140913
    26  H    0.140720
    27  H    0.123214
    28  H    0.115018
    29  H    0.118545
    30  H    0.121875
    31  H    0.127095
    32  H    0.126477
    33  H    0.121222
    34  H    0.108249
    35  H    0.103065
    36  H    0.109844
    37  H    0.115062
    38  H    0.137067
    39  H    0.137689
    40  H    0.134481
 Sum of Mulliken charges =  -0.00000

 Dipole moment (field-independent basis, Debye):
    X=              0.3209    Y=              1.4360    Z=              0.3378  Tot=              1.5097
 Quadrupole moment (field-independent basis, Debye-Ang):
   XX=           -104.6028   YY=            -93.8107   ZZ=            -95.5697
   XY=              1.8024   XZ=             -2.3653   YZ=             -1.1278

 Summary of Natural Population Analysis:

                                       Natural Population
                Natural  -----------------------------------------------
    Atom  No    Charge         Core      Valence    Rydberg      Total
 -----------------------------------------------------------------------
      C    1   -0.67357      1.99946     4.66658    0.00753     6.67357
      C    2   -0.44964      1.99934     4.43932    0.01098     6.44964
      C    3   -0.45434      1.99928     4.44246    0.01260     6.45434
      C    4   -0.79089      1.99931     4.77437    0.01721     6.79089
      H    5    0.26204      0.00000     0.73142    0.00654     0.73796
      H    6    0.24956      0.00000     0.74802    0.00242     0.75044
      P    7    1.02839      9.99768     3.85767    0.11627    13.97161
      C    8   -0.86268      1.99932     4.83906    0.02430     6.86268
      H    9    0.23202      0.00000     0.75861    0.00937     0.76798
      H   10    0.24395      0.00000     0.75139    0.00467     0.75605
      C   11   -0.46323      1.99933     4.45145    0.01245     6.46323
      C   12   -0.45070      1.99935     4.43997    0.01139     6.45070
      C   13   -0.67799      1.99946     4.67034    0.00820     6.67799
      C   14   -0.76788      1.99930     4.75082    0.01775     6.76788
      H   15    0.25031      0.00000     0.74629    0.00340     0.74969
      H   16    0.27001      0.00000     0.72771    0.00227     0.72999
      C   17   -0.46459      1.99932     4.45032    0.01496     6.46459
      C   18   -0.45954      1.99934     4.44847    0.01172     6.45954
      C   19   -0.67379      1.99946     4.66635    0.00798     6.67379
      H   20    0.23701      0.00000     0.76209    0.00091     0.76299
      H   21    0.22787      0.00000     0.77091    0.00121     0.77213
      H   22    0.22674      0.00000     0.77222    0.00105     0.77326
      H   23    0.23116      0.00000     0.76712    0.00172     0.76884
      H   24    0.23039      0.00000     0.76772    0.00189     0.76961
      H   25    0.22535      0.00000     0.77179    0.00286     0.77465
      H   26    0.22449      0.00000     0.76833    0.00718     0.77551
      H   27    0.21822      0.00000     0.77866    0.00312     0.78178
      H   28    0.21626      0.00000     0.77608    0.00766     0.78374
      H   29    0.22338      0.00000     0.77224    0.00438     0.77662
      H   30    0.22155      0.00000     0.77422    0.00423     0.77845
      H   31    0.21584      0.00000     0.78044    0.00372     0.78416
      H   32    0.22108      0.00000     0.77473    0.00418     0.77892
      H   33    0.21016      0.00000     0.78257    0.00727     0.78984
      H   34    0.21136      0.00000     0.77816    0.01048     0.78864
      H   35    0.21647      0.00000     0.77332    0.01020     0.78353
      H   36    0.21417      0.00000     0.77998    0.00585     0.78583
      H   37    0.21037      0.00000     0.77792    0.01172     0.78963
      H   38    0.22233      0.00000     0.77573    0.00194     0.77767
      H   39    0.22907      0.00000     0.76944    0.00149     0.77093
      H   40    0.21929      0.00000     0.77715    0.00356     0.78071
 =======================================================================
   * Total *   -0.00000     33.98995    79.61143    0.39862   114.00000

 Normal termination of Gaussian 16 at Sun Aug 23 06:27:05 2020.
