 Gaussian 16, Revision A.03,

 ---------------------------------
 # opt=CalcAll B3LYP/6-31G* scf=qc
 ---------------------------------

 -------------------
 Title Card Required
 -------------------
 Symbolic Z-matrix:
 Charge =  0 Multiplicity = 1

 SCF Done:  E(RB3LYP) =  -2415.07757965     a.u. after    8 cycles
 SCF Done:  E(RB3LYP) =  -2415.08509876     a.u. after   19 cycles
 SCF Done:  E(RB3LYP) =  -2415.08606667     a.u. after   13 cycles
 SCF Done:  E(RB3LYP) =  -2415.08621290     a.u. after   11 cycles
 SCF Done:  E(RB3LYP) =  -2415.08623311     a.u. after    9 cycles
 SCF Done:  E(RB3LYP) =  -2415.08624161     a.u. after    7 cycles
 SCF Done:  E(RB3LYP) =  -2415.08624309     a.u. after    5 cycles
 SCF Done:  E(RB3LYP) =  -2415.08624335     a.u. after    2 cycles
 SCF Done:  E(RB3LYP) =  -2415.08624561     a.u. after    2 cycles
 SCF Done:  E(RB3LYP) =  -2415.08624276     a.u. after    2 cycles
 SCF Done:  E(RB3LYP) =  -2415.08624208     a.u. after    2 cycles
 SCF Done:  E(RB3LYP) =  -2415.08624442     a.u. after    3 cycles
 SCF Done:  E(RB3LYP) =  -2415.08624470     a.u. after    2 cycles
 SCF Done:  E(RB3LYP) =  -2415.08623925     a.u. after    2 cycles
 SCF Done:  E(RB3LYP) =  -2415.08623975     a.u. after    2 cycles
 SCF Done:  E(RB3LYP) =  -2415.08624927     a.u. after    2 cycles
 SCF Done:  E(RB3LYP) =  -2415.08624500     a.u. after    2 cycles
 SCF Done:  E(RB3LYP) =  -2415.08624687     a.u. after    3 cycles
 Optimization completed.
    -- Stationary point found.
 Normal termination of Gaussian 16 at Sun Aug 23 04:22:02 2020.

 ----------------------------------------------------------------------
 # freq B3LYP/6-31G* scf=qc volume NMR pop=NPA density=current Geom=All
 Check Guess=Read
 ----------------------------------------------------------------------

 Structure from the checkpoint file:  "phosphine_11_conf162.chk"
 -------------------
 Title Card Required
 -------------------
 Charge =  0 Multiplicity = 1

 SCF Done:  E(RB3LYP) =  -2415.08624687     a.u. after    1 cycles

      1  C    Isotropic =    67.5532   Anisotropy =   140.5723

      2  C    Isotropic =    60.2422   Anisotropy =   160.2644

      3  C    Isotropic =    58.6901   Anisotropy =   177.4713

      4  C    Isotropic =    61.9014   Anisotropy =   168.5736

      5  C    Isotropic =    67.5459   Anisotropy =   140.1053

      6  C    Isotropic =    51.6079   Anisotropy =   109.1343

      7  Cl   Isotropic =   720.9565   Anisotropy =   452.9792

      8  P    Isotropic =   364.8635   Anisotropy =    37.4878

      9  C    Isotropic =    58.7847   Anisotropy =   177.4125

     10  C    Isotropic =    61.8467   Anisotropy =   168.6620

     11  C    Isotropic =    67.5335   Anisotropy =   140.0972

     12  C    Isotropic =    51.5771   Anisotropy =   109.1905

     13  C    Isotropic =    67.5613   Anisotropy =   140.6154

     14  C    Isotropic =    60.1770   Anisotropy =   160.2299

     15  Cl   Isotropic =   720.9391   Anisotropy =   452.8856

     16  C    Isotropic =    58.7421   Anisotropy =   177.4017

     17  C    Isotropic =    60.2434   Anisotropy =   160.3161

     18  C    Isotropic =    67.5533   Anisotropy =   140.5814

     19  C    Isotropic =    51.6174   Anisotropy =   109.1131

     20  C    Isotropic =    67.5384   Anisotropy =   140.1133

     21  C    Isotropic =    61.9184   Anisotropy =   168.5847

     22  Cl   Isotropic =   721.0521   Anisotropy =   452.8542

     23  H    Isotropic =    25.0957   Anisotropy =     6.6308

     24  H    Isotropic =    24.7812   Anisotropy =     8.9700

     25  H    Isotropic =    25.5850   Anisotropy =    12.1114

     26  H    Isotropic =    25.2087   Anisotropy =     8.1429

     27  H    Isotropic =    25.5782   Anisotropy =    12.0947

     28  H    Isotropic =    25.2090   Anisotropy =     8.1391

     29  H    Isotropic =    25.0890   Anisotropy =     6.6356

     30  H    Isotropic =    24.7753   Anisotropy =     8.9545

     31  H    Isotropic =    24.7811   Anisotropy =     8.9795

     32  H    Isotropic =    25.0924   Anisotropy =     6.6348

     33  H    Isotropic =    25.2087   Anisotropy =     8.1431

     34  H    Isotropic =    25.5841   Anisotropy =    12.1277

  Exact polarizability: 280.699   0.152 280.431  -0.151   0.042 185.176
 Approx polarizability: 393.565   0.356 393.138  -0.345   0.090 343.299

                      1                      2                      3
                      A                      A                      A
 Frequencies --     22.7669                23.7295                29.7248
 Red. masses --      4.8924                 5.3013                 8.1829
 Frc consts  --      0.0015                 0.0018                 0.0043
 IR Inten    --      0.2625                 0.2464                 0.1928

                      4                      5                      6
                      A                      A                      A
 Frequencies --     30.0455                38.4739                40.5467
 Red. masses --      7.2745                 8.5353                 4.4425
 Frc consts  --      0.0039                 0.0074                 0.0043
 IR Inten    --      0.2290                 0.1998                 0.0275

                      7                      8                      9
                      A                      A                      A
 Frequencies --    109.4061               117.6165               117.9041
 Red. masses --      8.8644                 8.8340                 8.8319
 Frc consts  --      0.0625                 0.0720                 0.0723
 IR Inten    --      0.0250                 0.3520                 0.3467

                     10                     11                     12
                      A                      A                      A
 Frequencies --    181.0571               187.3725               187.6453
 Red. masses --     10.0376                 8.7895                 8.7929
 Frc consts  --      0.1939                 0.1818                 0.1824
 IR Inten    --      0.3332                 0.5709                 0.5704

                     13                     14                     15
                      A                      A                      A
 Frequencies --    264.0470               293.6304               293.8112
 Red. masses --      8.9764                 8.4097                 8.4153
 Frc consts  --      0.3687                 0.4272                 0.4280
 IR Inten    --      0.2160                 0.9136                 0.9069

                     16                     17                     18
                      A                      A                      A
 Frequencies --    310.9139               328.7351               328.8920
 Red. masses --      6.0415                 5.9877                 5.9735
 Frc consts  --      0.3441                 0.3812                 0.3807
 IR Inten    --      0.0035                 1.8899                 1.8692

                     19                     20                     21
                      A                      A                      A
 Frequencies --    383.9547               384.1422               414.7237
 Red. masses --      8.0356                 8.0248                 3.0467
 Frc consts  --      0.6980                 0.6977                 0.3087
 IR Inten    --     20.9607                21.0280                 0.0536

                     22                     23                     24
                      A                      A                      A
 Frequencies --    414.8266               416.7909               427.0126
 Red. masses --      3.0453                 3.2144                 6.6054
 Frc consts  --      0.3088                 0.3290                 0.7096
 IR Inten    --      0.0486                 0.1653                 2.9411

                     25                     26                     27
                      A                      A                      A
 Frequencies --    499.5857               509.4127               509.5838
 Red. masses --      5.5215                 3.6441                 3.6545
 Frc consts  --      0.8120                 0.5572                 0.5591
 IR Inten    --      6.8199                19.8499                19.8942

                     28                     29                     30
                      A                      A                      A
 Frequencies --    531.7240               548.7995               548.9110
 Red. masses --      4.5720                 7.4224                 7.4308
 Frc consts  --      0.7616                 1.3171                 1.3191
 IR Inten    --      9.8634                 5.4850                 5.4686

                     31                     32                     33
                      A                      A                      A
 Frequencies --    644.3258               644.3803               645.2983
 Red. masses --      7.1595                 7.1601                 7.1684
 Frc consts  --      1.7512                 1.7517                 1.7587
 IR Inten    --      0.0369                 0.0370                 0.0963

                     34                     35                     36
                      A                      A                      A
 Frequencies --    718.2533               718.3810               718.7754
 Red. masses --      4.5888                 4.5927                 4.6092
 Frc consts  --      1.3948                 1.3965                 1.4030
 IR Inten    --      1.6587                 1.6918                 0.2948

                     37                     38                     39
                      A                      A                      A
 Frequencies --    746.1188               751.6280               751.6703
 Red. masses --      7.2608                 7.2729                 7.2761
 Frc consts  --      2.3815                 2.4208                 2.4221
 IR Inten    --     14.6350                54.3263                54.3941

                     40                     41                     42
                      A                      A                      A
 Frequencies --    833.7917               834.2177               834.3565
 Red. masses --      1.4165                 1.4314                 1.4314
 Frc consts  --      0.5802                 0.5869                 0.5871
 IR Inten    --     23.5346                32.8408                32.7214

                     43                     44                     45
                      A                      A                      A
 Frequencies --    845.9313               846.0587               849.1230
 Red. masses --      1.2465                 1.2465                 1.2502
 Frc consts  --      0.5256                 0.5257                 0.5311
 IR Inten    --      0.6071                 0.6681                 0.3266

                     46                     47                     48
                      A                      A                      A
 Frequencies --    969.6154               969.7201               970.0900
 Red. masses --      1.2760                 1.2770                 1.2883
 Frc consts  --      0.7068                 0.7075                 0.7143
 IR Inten    --      0.1495                 0.1498                 0.2046

                     49                     50                     51
                      A                      A                      A
 Frequencies --    973.4145               973.6069               976.9386
 Red. masses --      1.3456                 1.3439                 1.3208
 Frc consts  --      0.7512                 0.7506                 0.7427
 IR Inten    --      0.0119                 0.0118                 0.4155

                     52                     53                     54
                      A                      A                      A
 Frequencies --   1027.9700              1027.9945              1029.6281
 Red. masses --      4.7611                 4.7640                 4.7008
 Frc consts  --      2.9643                 2.9662                 2.9362
 IR Inten    --     62.7159                62.6850                 5.1174

                     55                     56                     57
                      A                      A                      A
 Frequencies --   1097.7477              1097.7917              1101.5028
 Red. masses --      7.9111                 7.9228                 8.0773
 Frc consts  --      5.6168                 5.6256                 5.7741
 IR Inten    --     80.9363                81.6398                13.6467

                     58                     59                     60
                      A                      A                      A
 Frequencies --   1118.2716              1118.3698              1121.1972
 Red. masses --      2.1223                 2.1222                 2.1022
 Frc consts  --      1.5637                 1.5639                 1.5570
 IR Inten    --     33.0562                32.8111                 6.3724

                     61                     62                     63
                      A                      A                      A
 Frequencies --   1139.3700              1139.4947              1139.5554
 Red. masses --      1.4012                 1.4022                 1.4024
 Frc consts  --      1.0717                 1.0727                 1.0730
 IR Inten    --      0.5585                 0.1486                 3.4282

                     64                     65                     66
                      A                      A                      A
 Frequencies --   1219.2405              1219.4788              1220.8662
 Red. masses --      1.1571                 1.1574                 1.1517
 Frc consts  --      1.0134                 1.0141                 1.0114
 IR Inten    --      4.8013                 4.8357                 0.8948

                     67                     68                     69
                      A                      A                      A
 Frequencies --   1318.3379              1322.2603              1322.3566
 Red. masses --      6.9341                 7.6972                 7.6561
 Frc consts  --      7.1006                 7.9290                 7.8878
 IR Inten    --      1.3136                 2.6534                 2.6784

                     70                     71                     72
                      A                      A                      A
 Frequencies --   1337.3850              1337.5966              1337.7731
 Red. masses --      1.3337                 1.3318                 1.3497
 Frc consts  --      1.4055                 1.4039                 1.4232
 IR Inten    --      0.4172                 0.4342                 1.4363

                     73                     74                     75
                      A                      A                      A
 Frequencies --   1429.5877              1430.0302              1430.0534
 Red. masses --      2.6341                 2.6392                 2.6426
 Frc consts  --      3.1718                 3.1798                 3.1841
 IR Inten    --     19.6749                 6.0554                 6.2078

                     76                     77                     78
                      A                      A                      A
 Frequencies --   1527.1290              1527.1654              1527.2363
 Red. masses --      2.0847                 2.0860                 2.0763
 Frc consts  --      2.8645                 2.8664                 2.8533
 IR Inten    --     43.3724                37.1076                61.5826

                     79                     80                     81
                      A                      A                      A
 Frequencies --   1611.0444              1611.2782              1611.3165
 Red. masses --      6.6430                 6.6589                 6.6613
 Frc consts  --     10.1584                10.1858                10.1899
 IR Inten    --      3.8616                 3.8522                 3.7820

                     82                     83                     84
                      A                      A                      A
 Frequencies --   1633.4487              1633.4662              1634.5045
 Red. masses --      5.4286                 5.4239                 5.4917
 Frc consts  --      8.5339                 8.5268                 8.6442
 IR Inten    --     29.6445                29.7980                13.1259

                     85                     86                     87
                      A                      A                      A
 Frequencies --   3187.9982              3188.1273              3188.2618
 Red. masses --      1.0892                 1.0892                 1.0892
 Frc consts  --      6.5224                 6.5228                 6.5233
 IR Inten    --      5.0361                 4.0606                 3.5889

                     88                     89                     90
                      A                      A                      A
 Frequencies --   3205.7355              3205.8209              3206.3865
 Red. masses --      1.0879                 1.0878                 1.0879
 Frc consts  --      6.5868                 6.5870                 6.5898
 IR Inten    --      0.8696                 0.8567                 0.6543

                     91                     92                     93
                      A                      A                      A
 Frequencies --   3222.6145              3222.6431              3222.7736
 Red. masses --      1.0938                 1.0938                 1.0937
 Frc consts  --      6.6925                 6.6926                 6.6927
 IR Inten    --      2.2908                 2.4753                 9.8272

                     94                     95                     96
                      A                      A                      A
 Frequencies --   3223.6958              3223.7159              3223.9539
 Red. masses --      1.0939                 1.0939                 1.0941
 Frc consts  --      6.6979                 6.6980                 6.7002
 IR Inten    --      5.7073                 5.6615                 0.0232

 - Thermochemistry -
 -------------------
 Temperature   298.150 Kelvin.  Pressure   1.00000 Atm.
 Atom     1 has atomic number  6 and mass  12.00000

 Molecular mass:   363.97422 amu.
 Principal axes and moments of inertia in atomic units:
                           1         2         3
     Eigenvalues --  ******************************
           X            0.99976   0.02194  -0.00003
           Y           -0.02194   0.99976   0.00001
           Z            0.00003  -0.00001   1.00000
 This molecule is an asymmetric top.
 Rotational symmetry number  1.
 Warning -- assumption of classical behavior for rotation
           may cause significant error
 Rotational temperatures (Kelvin)      0.00723     0.00722     0.00405
 Rotational constants (GHZ):           0.15070     0.15053     0.08440
 Zero-point vibrational energy     643792.2 (Joules/Mol)
                                  153.87004 (Kcal/Mol)
 Warning -- explicit consideration of  30 degrees of freedom as
           vibrations may cause significant error
 Vibrational temperatures:     32.76    34.14    42.77    43.23    55.36
          (Kelvin)             58.34   157.41   169.22   169.64   260.50
                              269.59   269.98   379.90   422.47   422.73
                              447.34   472.98   473.20   552.43   552.69
                              596.69   596.84   599.67   614.38   718.79
                              732.93   733.18   765.03   789.60   789.76
                              927.04   927.12   928.44  1033.41  1033.59
                             1034.16  1073.50  1081.43  1081.49  1199.64
                             1200.25  1200.45  1217.11  1217.29  1221.70
                             1395.06  1395.21  1395.74  1400.53  1400.80
                             1405.60  1479.02  1479.05  1481.41  1579.41
                             1579.48  1584.82  1608.94  1609.08  1613.15
                             1639.30  1639.48  1639.57  1754.22  1754.56
                             1756.55  1896.79  1902.44  1902.58  1924.20
                             1924.50  1924.76  2056.86  2057.49  2057.53
                             2197.20  2197.25  2197.35  2317.93  2318.27
                             2318.33  2350.17  2350.19  2351.69  4586.82
                             4587.00  4587.20  4612.34  4612.46  4613.28
                             4636.62  4636.66  4636.85  4638.18  4638.21
                             4638.55

 Zero-point correction=                           0.245208 (Hartree/Particle)
 Thermal correction to Energy=                    0.264850
 Thermal correction to Enthalpy=                  0.265794
 Thermal correction to Gibbs Free Energy=         0.192392
 Sum of electronic and zero-point Energies=          -2414.841039
 Sum of electronic and thermal Energies=             -2414.821397
 Sum of electronic and thermal Enthalpies=           -2414.820452
 Sum of electronic and thermal Free Energies=        -2414.893855

                     E (Thermal)             CV                S
                      KCal/Mol        Cal/Mol-Kelvin    Cal/Mol-Kelvin
 Total                  166.196             74.118            154.488
 Electronic               0.000              0.000              0.000
 Translational            0.889              2.981             43.569
 Rotational               0.889              2.981             36.372
 Vibrational            164.419             68.156             74.548
 Vibration     1          0.593              1.985              6.377
 Vibration     2          0.593              1.985              6.295
 Vibration     3          0.594              1.984              5.848
 Vibration     4          0.594              1.984              5.826
 Vibration     5          0.594              1.982              5.336
 Vibration     6          0.594              1.981              5.232
 Vibration     7          0.606              1.942              3.279
 Vibration     8          0.608              1.935              3.139
 Vibration     9          0.608              1.934              3.134
 Vibration    10          0.630              1.865              2.317
 Vibration    11          0.632              1.857              2.254
 Vibration    12          0.632              1.857              2.251
 Vibration    13          0.671              1.739              1.635
 Vibration    14          0.688              1.686              1.453
 Vibration    15          0.689              1.685              1.452
 Vibration    16          0.700              1.653              1.357
 Vibration    17          0.712              1.618              1.266
 Vibration    18          0.712              1.618              1.266
 Vibration    19          0.753              1.504              1.024
 Vibration    20          0.753              1.504              1.023
 Vibration    21          0.778              1.438              0.910
 Vibration    22          0.778              1.438              0.910
 Vibration    23          0.780              1.434              0.903
 Vibration    24          0.789              1.411              0.868
 Vibration    25          0.855              1.251              0.659
 Vibration    26          0.865              1.229              0.635
 Vibration    27          0.865              1.229              0.635
 Vibration    28          0.887              1.180              0.583
 Vibration    29          0.904              1.142              0.547
 Vibration    30          0.904              1.142              0.546

                           ! Non-Optimized Parameters !
 Normal termination of Gaussian 16 at Sun Aug 23 04:37:30 2020.
 Gaussian 16:  ES64L-G16RevA.03 25-Dec-2016

 ----------------------------------------------------------------------
 # TD(NStates=10, Root=1) B3LYP/6-31G* scf=qc volume pop=NPA density=cu
 rrent Geom=AllCheck Guess=Read
 ----------------------------------------------------------------------

 Structure from the checkpoint file:  "phosphine_11_conf163.chk"
 -------------------
 Title Card Required
 -------------------
 Charge =  0 Multiplicity = 1

                         Standard orientation:
 ---------------------------------------------------------------------
 Center     Atomic      Atomic             Coordinates (Angstroms)
 Number     Number       Type             X           Y           Z
 ---------------------------------------------------------------------
      1          6           0       -0.784846    3.973313    0.852487
      2          6           0       -0.735917    2.681062    1.372108
      3          6           0        0.006576    1.667900    0.742823
      4          6           0        0.723209    1.993080   -0.418537
      5          6           0        0.694339    3.285204   -0.945277
      6          6           0       -0.064461    4.264044   -0.305821
      7         17           0       -0.106814    5.893062   -0.964045
      8         15           0        0.000094   -0.001112    1.547654
      9          6           0       -1.448674   -0.829369    0.742461
     10          6           0       -2.083324   -0.375094   -0.423289
     11          6           0       -3.188427   -1.045108   -0.950152
     12          6           0       -3.662670   -2.186809   -0.306303
     13          6           0       -3.056004   -2.661519    0.856322
     14          6           0       -1.960606   -1.974087    1.375900
     15         17           0       -5.053118   -3.036503   -0.964579
     16          6           0        1.442468   -0.840703    0.742645
     17          6           0        2.691648   -0.700918    1.370254
     18          6           0        3.835568   -1.304215    0.850896
     19          6           0        3.727034   -2.076553   -0.305349
     20          6           0        2.499477   -2.247721   -0.942976
     21          6           0        1.365658   -1.626979   -0.416619
     22         17           0        5.159424   -2.853840   -0.963223
     23          1           0       -1.363842    4.748325    1.343454
     24          1           0       -1.282120    2.460609    2.286118
     25          1           0        1.316818    1.235535   -0.920943
     26          1           0        1.253330    3.529818   -1.842502
     27          1           0       -1.719445    0.514051   -0.928949
     28          1           0       -3.675748   -0.686241   -1.850733
     29          1           0       -3.442262   -3.546633    1.350597
     30          1           0       -1.500631   -2.333706    2.293197
     31          1           0        2.773979   -0.115269    2.282722
     32          1           0        4.796608   -1.187597    1.340517
     33          1           0        2.431712   -2.856541   -1.838557
     34          1           0        0.412537   -1.765050   -0.917761
 ---------------------------------------------------------------------

 SCF Done:  E(RB3LYP) =  -2415.08624687     a.u. after    1 cycles

 Excitation energies and oscillator strengths:

 Excited State   1:      Singlet-A      4.4043 eV  281.51 nm  f=0.1822  <S**2>=0.000
      93 -> 94         0.69579
 This state for optimization and/or second-order correction.
 Total Energy, E(TD-HF/TD-DFT) =  -2414.92439184
 Copying the excited state density for this state as the 1-particle RhoCI density.

 Excited State   2:      Singlet-A      4.4083 eV  281.25 nm  f=0.1846  <S**2>=0.000
      93 -> 95         0.69575

 Excited State   3:      Singlet-A      4.6122 eV  268.82 nm  f=0.0036  <S**2>=0.000
      89 -> 94        -0.10975
      90 -> 95        -0.11058
      93 -> 96         0.67969

 Excited State   4:      Singlet-A      4.9170 eV  252.15 nm  f=0.0001  <S**2>=0.000
      88 -> 94         0.11686
      89 -> 94         0.11204
      90 -> 95        -0.11265
      93 -> 98         0.64520

 Excited State   5:      Singlet-A      4.9187 eV  252.07 nm  f=0.0001  <S**2>=0.000
      88 -> 95         0.11656
      89 -> 95        -0.11408
      90 -> 94        -0.11344
      90 -> 97         0.10128
      93 -> 99         0.64458

 Excited State   6:      Singlet-A      5.0224 eV  246.86 nm  f=0.0090  <S**2>=0.000
      91 -> 94        -0.11632
      92 -> 95        -0.11707
      93 -> 97         0.66856

 Excited State   7:      Singlet-A      5.2594 eV  235.74 nm  f=0.0018  <S**2>=0.000
      89 -> 94         0.13420
      90 -> 95         0.12867
      91 -> 94         0.24461
      91 -> 95        -0.36721
      91 -> 98         0.12605
      92 -> 94         0.37590
      92 -> 95         0.24296
      92 -> 99         0.12202
      93 -> 96         0.10400

 Excited State   8:      Singlet-A      5.3608 eV  231.28 nm  f=0.0053  <S**2>=0.000
      87 -> 94         0.10017
      88 -> 94        -0.19240
      89 -> 94        -0.19391
      89 -> 97        -0.11214
      90 -> 95         0.19212
      91 -> 94        -0.10494
      91 -> 96         0.37965
      91 -> 98        -0.11651
      92 -> 94         0.10807
      92 -> 95         0.10891
      92 -> 96        -0.22425
      92 -> 98         0.10082
      92 -> 99         0.11595
      93 -> 98         0.22713

 Excited State   9:      Singlet-A      5.3624 eV  231.21 nm  f=0.0049  <S**2>=0.000
      88 -> 95        -0.18886
      89 -> 95         0.19214
      90 -> 94         0.19275
      90 -> 97        -0.11228
      91 -> 95         0.11539
      91 -> 96         0.22126
      91 -> 99         0.11474
      92 -> 94         0.11033
      92 -> 96         0.38448
      92 -> 98         0.11789
      93 -> 99         0.22890

 Excited State  10:      Singlet-A      5.4207 eV  228.73 nm  f=0.1604  <S**2>=0.000
      91 -> 94        -0.37827
      91 -> 95        -0.26284
      92 -> 94        -0.27033
      92 -> 95         0.38212
      92 -> 96         0.13360

 The electronic state is 1-A.
 Alpha  occ. eigenvalues -- -101.55496-101.55491-101.55490 -77.10094 -10.26333
 Alpha  occ. eigenvalues --  -10.26326 -10.26325 -10.21419 -10.21417 -10.21416
 Alpha  occ. eigenvalues --  -10.21370 -10.21365 -10.21365 -10.21349 -10.21344
 Alpha  occ. eigenvalues --  -10.21343 -10.21315 -10.21311 -10.21310 -10.21252
 Alpha  occ. eigenvalues --  -10.21246 -10.21245  -9.47128  -9.47123  -9.47122
 Alpha  occ. eigenvalues --   -7.23523  -7.23517  -7.23517  -7.22558  -7.22553
 Alpha  occ. eigenvalues --   -7.22552  -7.22521  -7.22515  -7.22515  -6.56809
 Alpha  occ. eigenvalues --   -4.73069  -4.73069  -4.72564  -0.89964  -0.89793
 Alpha  occ. eigenvalues --   -0.89789  -0.85153  -0.84238  -0.84234  -0.76898
 Alpha  occ. eigenvalues --   -0.76781  -0.76779  -0.76742  -0.73908  -0.73904
 Alpha  occ. eigenvalues --   -0.65057  -0.63151  -0.62987  -0.62985  -0.60497
 Alpha  occ. eigenvalues --   -0.60495  -0.57615  -0.52432  -0.52429  -0.49747
 Alpha  occ. eigenvalues --   -0.48088  -0.47999  -0.47997  -0.47167  -0.47166
 Alpha  occ. eigenvalues --   -0.46321  -0.44340  -0.44247  -0.44244  -0.42726
 Alpha  occ. eigenvalues --   -0.42723  -0.40319  -0.40239  -0.40236  -0.39581
 Alpha  occ. eigenvalues --   -0.37220  -0.37218  -0.37129  -0.35192  -0.35185
 Alpha  occ. eigenvalues --   -0.34134  -0.33462  -0.33456  -0.31868  -0.31862
 Alpha  occ. eigenvalues --   -0.31860  -0.27683  -0.27413  -0.27145  -0.27139
 Alpha  occ. eigenvalues --   -0.25833  -0.25824  -0.22678
 Alpha virt. eigenvalues --   -0.03962  -0.03952  -0.03032  -0.01964  -0.01791
 Alpha virt. eigenvalues --   -0.01781   0.02241   0.02245   0.02402   0.05585
 Alpha virt. eigenvalues --    0.05601   0.10343   0.12153   0.12344   0.12347

 Mulliken charges:
               1
     1  C   -0.121951
     2  C   -0.151975
     3  C   -0.086573
     4  C   -0.160861
     5  C   -0.112990
     6  C   -0.074197
     7  Cl  -0.001610
     8  P    0.446455
     9  C   -0.132211
    10  C   -0.174112
    11  C   -0.118689
    12  C   -0.104234
    13  C   -0.123901
    14  C   -0.170459
    15  Cl  -0.050023
    16  C   -0.096843
    17  C   -0.166730
    18  C   -0.113849
    19  C   -0.072525
    20  C   -0.120601
    21  C   -0.149300
    22  Cl   0.002374
    23  H    0.163705
    24  H    0.155791
    25  H    0.159188
    26  H    0.165807
    27  H    0.132705
    28  H    0.144769
    29  H    0.141697
    30  H    0.125708
    31  H    0.151280
    32  H    0.163735
    33  H    0.168481
    34  H    0.181942
 Sum of Mulliken charges =   0.00000

 Dipole moment (field-independent basis, Debye):
    X=              3.7964    Y=              1.9029    Z=              1.9749  Tot=              4.6833
 Quadrupole moment (field-independent basis, Debye-Ang):
   XX=           -171.3437   YY=           -163.7686   ZZ=           -145.0335
   XY=             -8.2216   XZ=             -1.0244   YZ=              0.3251

 Summary of Natural Population Analysis:

                                       Natural Population
                Natural  -----------------------------------------------
    Atom  No    Charge         Core      Valence    Rydberg      Total
 -----------------------------------------------------------------------
      C    1   -0.25714      1.99893     4.24215    0.01605     6.25714
      C    2   -0.18669      1.99901     4.17249    0.01519     6.18669
      C    3   -0.39641      1.99889     4.37353    0.02399     6.39641
      C    4   -0.22382      1.99899     4.20815    0.01668     6.22382
      C    5   -0.23446      1.99893     4.22036    0.01518     6.23446
      C    6   -0.03728      1.99855     4.01649    0.02224     6.03728
     Cl    7    0.01494      9.99967     6.96574    0.01966    16.98506
      P    8    1.21205      9.99758     3.74052    0.04984    13.78795
      C    9   -0.48884      1.99886     4.46464    0.02534     6.48884
      C   10   -0.25073      1.99899     4.23396    0.01778     6.25073
      C   11   -0.24457      1.99893     4.22971    0.01593     6.24457
      C   12   -0.09881      1.99854     4.07807    0.02220     6.09881
      C   13   -0.26097      1.99894     4.24552    0.01651     6.26097
      C   14   -0.22082      1.99901     4.20564    0.01616     6.22082
     Cl   15   -0.02128      9.99968     7.00103    0.02058    17.02128
      C   16   -0.40970      1.99890     4.38491    0.02588     6.40970
      C   17   -0.20899      1.99902     4.19441    0.01556     6.20899
      C   18   -0.24231      1.99893     4.22806    0.01532     6.24231
      C   19   -0.03355      1.99855     4.01271    0.02230     6.03355
      C   20   -0.24794      1.99893     4.23337    0.01565     6.24794
      C   21   -0.19475      1.99900     4.17949    0.01627     6.19475
     Cl   22    0.01824      9.99967     6.96247    0.01962    16.98176
      H   23    0.25861      0.00000     0.74036    0.00103     0.74139
      H   24    0.24783      0.00000     0.75097    0.00120     0.75217
      H   25    0.25286      0.00000     0.74589    0.00125     0.74714
      H   26    0.25952      0.00000     0.73943    0.00106     0.74048
      H   27    0.23768      0.00000     0.76085    0.00147     0.76232
      H   28    0.24981      0.00000     0.74915    0.00104     0.75019
      H   29    0.24801      0.00000     0.75094    0.00105     0.75199
      H   30    0.23130      0.00000     0.76778    0.00093     0.76870
      H   31    0.24410      0.00000     0.75484    0.00107     0.75590
      H   32    0.25787      0.00000     0.74104    0.00109     0.74213
      H   33    0.26103      0.00000     0.73792    0.00105     0.73897
      H   34    0.26522      0.00000     0.73346    0.00132     0.73478
 =======================================================================
   * Total *    0.00000     75.97648   109.56604    0.45748   186.00000

 Normal termination of Gaussian 16 at Sun Aug 23 04:56:03 2020.
