 Gaussian 16, Revision A.03,

 ---------------------------------
 # opt=CalcAll B3LYP/6-31G* scf=qc
 ---------------------------------

 -------------------
 Title Card Required
 -------------------
 Symbolic Z-matrix:
 Charge =  0 Multiplicity = 1

 SCF Done:  E(RB3LYP) =  -1036.28802680     a.u. after    8 cycles
 SCF Done:  E(RB3LYP) =  -1036.29418741     a.u. after   17 cycles
 SCF Done:  E(RB3LYP) =  -1036.29679189     a.u. after   15 cycles
 SCF Done:  E(RB3LYP) =  -1036.29782998     a.u. after   15 cycles
 SCF Done:  E(RB3LYP) =  -1036.29817679     a.u. after   15 cycles
 SCF Done:  E(RB3LYP) =  -1036.29823089     a.u. after    7 cycles
 SCF Done:  E(RB3LYP) =  -1036.29823645     a.u. after    4 cycles
 SCF Done:  E(RB3LYP) =  -1036.29823226     a.u. after    3 cycles
 SCF Done:  E(RB3LYP) =  -1036.29823050     a.u. after    3 cycles
 SCF Done:  E(RB3LYP) =  -1036.29822926     a.u. after    2 cycles
 SCF Done:  E(RB3LYP) =  -1036.29823949     a.u. after    2 cycles
 SCF Done:  E(RB3LYP) =  -1036.29823521     a.u. after    2 cycles
 SCF Done:  E(RB3LYP) =  -1036.29823310     a.u. after    3 cycles
 SCF Done:  E(RB3LYP) =  -1036.29823743     a.u. after    2 cycles
 SCF Done:  E(RB3LYP) =  -1036.29823078     a.u. after    2 cycles
 SCF Done:  E(RB3LYP) =  -1036.29823090     a.u. after    2 cycles
 SCF Done:  E(RB3LYP) =  -1036.29823667     a.u. after    2 cycles
 Optimization completed.
    -- Stationary point found.
 Normal termination of Gaussian 16 at Sun Aug 23 04:33:28 2020.

 ----------------------------------------------------------------------
 # freq B3LYP/6-31G* scf=qc volume NMR pop=NPA density=current Geom=All
 Check Guess=Read
 ----------------------------------------------------------------------

 Structure from the checkpoint file:  "phosphine_1_conf122.chk"
 -------------------
 Title Card Required
 -------------------
 Charge =  0 Multiplicity = 1

 SCF Done:  E(RB3LYP) =  -1036.29823667     a.u. after    1 cycles

      1  C    Isotropic =    68.1793   Anisotropy =   167.3811

      2  C    Isotropic =    68.7338   Anisotropy =   164.1485

      3  C    Isotropic =    60.9909   Anisotropy =   164.0860

      4  C    Isotropic =    56.1028   Anisotropy =   179.3911

      5  C    Isotropic =    62.5677   Anisotropy =   174.0014

      6  C    Isotropic =    68.6781   Anisotropy =   163.8909

      7  P    Isotropic =   361.4535   Anisotropy =    39.7030

      8  C    Isotropic =    56.1239   Anisotropy =   179.4234

      9  C    Isotropic =    62.5766   Anisotropy =   174.0456

     10  C    Isotropic =    68.6749   Anisotropy =   163.8951

     11  C    Isotropic =    68.1734   Anisotropy =   167.3389

     12  C    Isotropic =    68.7309   Anisotropy =   164.1246

     13  C    Isotropic =    61.0119   Anisotropy =   164.1132

     14  C    Isotropic =    56.1120   Anisotropy =   179.4161

     15  C    Isotropic =    61.0224   Anisotropy =   164.1212

     16  C    Isotropic =    68.7308   Anisotropy =   164.1204

     17  C    Isotropic =    68.1678   Anisotropy =   167.3355

     18  C    Isotropic =    68.6802   Anisotropy =   163.8914

     19  C    Isotropic =    62.5886   Anisotropy =   174.0324

     20  H    Isotropic =    25.0170   Anisotropy =     3.6464

     21  H    Isotropic =    24.9249   Anisotropy =     4.5914

     22  H    Isotropic =    24.6148   Anisotropy =     9.2493

     23  H    Isotropic =    25.4030   Anisotropy =    12.2202

     24  H    Isotropic =    25.0478   Anisotropy =     6.0857

     25  H    Isotropic =    25.4007   Anisotropy =    12.2281

     26  H    Isotropic =    25.0473   Anisotropy =     6.0865

     27  H    Isotropic =    25.0199   Anisotropy =     3.6424

     28  H    Isotropic =    24.9277   Anisotropy =     4.5877

     29  H    Isotropic =    24.6136   Anisotropy =     9.2511

     30  H    Isotropic =    24.6146   Anisotropy =     9.2514

     31  H    Isotropic =    24.9277   Anisotropy =     4.5882

     32  H    Isotropic =    25.0200   Anisotropy =     3.6440

     33  H    Isotropic =    25.0479   Anisotropy =     6.0872

     34  H    Isotropic =    25.4034   Anisotropy =    12.2279

  Exact polarizability: 224.169  -0.008 224.105  -0.019   0.016 165.045
 Approx polarizability: 330.962  -0.019 330.833  -0.043   0.040 308.039

                      1                      2                      3
                      A                      A                      A
 Frequencies --     22.8570                24.8304                38.8749
 Red. masses --      3.7956                 3.7991                 3.6900
 Frc consts  --      0.0012                 0.0014                 0.0033
 IR Inten    --      0.2811                 0.2824                 0.0026

                      4                      5                      6
                      A                      A                      A
 Frequencies --     53.3665                53.4705                70.7648
 Red. masses --      5.2533                 5.2563                 5.1665
 Frc consts  --      0.0088                 0.0089                 0.0152
 IR Inten    --      0.0860                 0.0846                 0.3106

                      7                      8                      9
                      A                      A                      A
 Frequencies --    181.8518               202.4649               202.9014
 Red. masses --      4.5637                 4.6407                 4.6394
 Frc consts  --      0.0889                 0.1121                 0.1125
 IR Inten    --      0.3526                 1.1306                 1.1326

                     10                     11                     12
                      A                      A                      A
 Frequencies --    245.5855               260.0037               260.0395
 Red. masses --      5.7407                 4.7223                 4.7244
 Frc consts  --      0.2040                 0.1881                 0.1882
 IR Inten    --      0.4829                 0.2276                 0.2252

                     13                     14                     15
                      A                      A                      A
 Frequencies --    408.8630               408.9702               412.4579
 Red. masses --      3.0777                 3.0829                 3.6252
 Frc consts  --      0.3031                 0.3038                 0.3634
 IR Inten    --      1.9616                 1.9760                 0.1660

                     16                     17                     18
                      A                      A                      A
 Frequencies --    417.1349               429.5288               429.5367
 Red. masses --      4.5661                 7.3291                 7.3005
 Frc consts  --      0.4681                 0.7967                 0.7936
 IR Inten    --      0.5540                 7.7436                 7.6863

                     19                     20                     21
                      A                      A                      A
 Frequencies --    509.5656               509.6525               516.4820
 Red. masses --      4.2475                 4.2451                 4.5923
 Frc consts  --      0.6498                 0.6497                 0.7218
 IR Inten    --     26.1274                26.0269                11.9578

                     22                     23                     24
                      A                      A                      A
 Frequencies --    632.7430               632.7706               633.3843
 Red. masses --      6.4273                 6.4275                 6.4370
 Frc consts  --      1.5161                 1.5163                 1.5215
 IR Inten    --      0.1828                 0.1814                 0.0160

                     25                     26                     27
                      A                      A                      A
 Frequencies --    691.8947               705.1600               705.2361
 Red. masses --      6.5788                 5.7215                 5.7735
 Frc consts  --      1.8556                 1.6762                 1.6918
 IR Inten    --      0.7999                 1.1705                 1.0922

                     28                     29                     30
                      A                      A                      A
 Frequencies --    712.2920               712.4576               713.3973
 Red. masses --      2.1984                 2.1934                 2.1377
 Frc consts  --      0.6572                 0.6560                 0.6410
 IR Inten    --     26.4041                26.4334                16.5821

                     31                     32                     33
                      A                      A                      A
 Frequencies --    761.4154               762.8742               762.9289
 Red. masses --      1.6136                 1.6493                 1.6496
 Frc consts  --      0.5512                 0.5655                 0.5657
 IR Inten    --     19.2520                24.8891                24.8848

                     34                     35                     36
                      A                      A                      A
 Frequencies --    866.2328               866.3901               868.8616
 Red. masses --      1.2477                 1.2475                 1.2461
 Frc consts  --      0.5516                 0.5517                 0.5543
 IR Inten    --      0.2258                 0.2173                 0.1308

                     37                     38                     39
                      A                      A                      A
 Frequencies --    932.8922               933.0583               934.3950
 Red. masses --      1.3442                 1.3437                 1.3382
 Frc consts  --      0.6893                 0.6893                 0.6884
 IR Inten    --      1.2601                 1.2670                 0.0298

                     40                     41                     42
                      A                      A                      A
 Frequencies --    975.8632               976.0217               977.7681
 Red. masses --      1.3612                 1.3608                 1.3552
 Frc consts  --      0.7637                 0.7638                 0.7633
 IR Inten    --      0.0167                 0.0152                 0.1363

                     43                     44                     45
                      A                      A                      A
 Frequencies --   1000.3553              1000.4457              1001.1811
 Red. masses --      1.2542                 1.2541                 1.2524
 Frc consts  --      0.7395                 0.7395                 0.7396
 IR Inten    --      0.0783                 0.0790                 0.0004

                     46                     47                     48
                      A                      A                      A
 Frequencies --   1015.3796              1015.3918              1015.7622
 Red. masses --      6.3124                 6.3120                 6.3067
 Frc consts  --      3.8344                 3.8343                 3.8339
 IR Inten    --      4.3618                 4.3567                 0.0475

                     49                     50                     51
                      A                      A                      A
 Frequencies --   1052.7321              1052.7619              1052.9206
 Red. masses --      3.3117                 3.3162                 3.2522
 Frc consts  --      2.1624                 2.1655                 2.1243
 IR Inten    --      2.0987                 2.0886                 0.0381

                     52                     53                     54
                      A                      A                      A
 Frequencies --   1107.7012              1108.1377              1109.5137
 Red. masses --      1.8946                 1.8728                 1.6549
 Frc consts  --      1.3697                 1.3550                 1.2003
 IR Inten    --      4.4701                 4.0291                 2.8905

                     55                     56                     57
                      A                      A                      A
 Frequencies --   1110.8359              1110.9364              1116.1557
 Red. masses --      2.1845                 2.1953                 2.6131
 Frc consts  --      1.5882                 1.5963                 1.9180
 IR Inten    --      9.3654                 9.4595                 1.1909

                     58                     59                     60
                      A                      A                      A
 Frequencies --   1193.5149              1193.9271              1193.9717
 Red. masses --      1.1033                 1.1000                 1.1001
 Frc consts  --      0.9260                 0.9239                 0.9240
 IR Inten    --      0.0020                 0.1301                 0.1271

                     61                     62                     63
                      A                      A                      A
 Frequencies --   1219.1959              1219.5267              1220.8578
 Red. masses --      1.1475                 1.1478                 1.1473
 Frc consts  --      1.0050                 1.0058                 1.0075
 IR Inten    --      5.9510                 6.0962                 0.4211

                     64                     65                     66
                      A                      A                      A
 Frequencies --   1325.0706              1328.7147              1328.8820
 Red. masses --      3.4969                 3.4843                 3.5189
 Frc consts  --      3.6176                 3.6243                 3.6613
 IR Inten    --      2.6279                 2.4339                 2.4428

                     67                     68                     69
                      A                      A                      A
 Frequencies --   1365.0142              1365.4013              1365.6580
 Red. masses --      1.6607                 1.6476                 1.6406
 Frc consts  --      1.8232                 1.8097                 1.8027
 IR Inten    --      0.5281                 0.1812                 2.6921

                     70                     71                     72
                      A                      A                      A
 Frequencies --   1480.5421              1480.9909              1481.0564
 Red. masses --      2.1109                 2.1156                 2.1162
 Frc consts  --      2.7262                 2.7340                 2.7349
 IR Inten    --     16.5861                 6.6377                 6.6417

                     73                     74                     75
                      A                      A                      A
 Frequencies --   1531.0490              1531.5669              1531.6523
 Red. masses --      2.0155                 1.9989                 1.9975
 Frc consts  --      2.7836                 2.7626                 2.7609
 IR Inten    --      2.0132                10.1159                10.1585

                     76                     77                     78
                      A                      A                      A
 Frequencies --   1630.1661              1630.4349              1630.4743
 Red. masses --      5.1016                 5.1136                 5.1115
 Frc consts  --      7.9876                 8.0092                 8.0062
 IR Inten    --      0.3953                 0.0468                 0.0438

                     79                     80                     81
                      A                      A                      A
 Frequencies --   1646.1672              1646.1863              1647.9622
 Red. masses --      5.2716                 5.2695                 5.2828
 Frc consts  --      8.4166                 8.4135                 8.4530
 IR Inten    --      3.5106                 3.5146                 0.3202

                     82                     83                     84
                      A                      A                      A
 Frequencies --   3176.0811              3176.0932              3176.1625
 Red. masses --      1.0854                 1.0854                 1.0853
 Frc consts  --      6.4507                 6.4507                 6.4509
 IR Inten    --      2.2586                 1.8339                 1.9359

                     85                     86                     87
                      A                      A                      A
 Frequencies --   3182.6372              3182.6658              3182.7418
 Red. masses --      1.0875                 1.0875                 1.0876
 Frc consts  --      6.4901                 6.4903                 6.4911
 IR Inten    --      0.7722                 0.7079                 0.2094

                     88                     89                     90
                      A                      A                      A
 Frequencies --   3192.8194              3192.8819              3192.9946
 Red. masses --      1.0916                 1.0917                 1.0917
 Frc consts  --      6.5566                 6.5569                 6.5579
 IR Inten    --     11.8499                10.9223                45.4744

                     91                     92                     93
                      A                      A                      A
 Frequencies --   3203.8723              3204.0175              3204.3618
 Red. masses --      1.0941                 1.0942                 1.0943
 Frc consts  --      6.6170                 6.6180                 6.6200
 IR Inten    --     40.3820                41.6631                 5.8693

                     94                     95                     96
                      A                      A                      A
 Frequencies --   3210.0546              3210.2314              3211.0608
 Red. masses --      1.0957                 1.0955                 1.0956
 Frc consts  --      6.6520                 6.6520                 6.6555
 IR Inten    --     20.0541                19.2761                16.3229

 - Thermochemistry -
 -------------------
 Temperature   298.150 Kelvin.  Pressure   1.00000 Atm.
 Atom     1 has atomic number  6 and mass  12.00000

 Molecular mass:   262.09114 amu.
 Principal axes and moments of inertia in atomic units:
                           1         2         3
     Eigenvalues --  5162.633095163.559838681.03540
           X            0.99997  -0.00743  -0.00001
           Y            0.00743   0.99997   0.00000
           Z            0.00001  -0.00000   1.00000
 This molecule is an asymmetric top.
 Rotational symmetry number  1.
 Warning -- assumption of classical behavior for rotation
           may cause significant error
 Rotational temperatures (Kelvin)      0.01678     0.01677     0.00998
 Rotational constants (GHZ):           0.34958     0.34951     0.20789
 Zero-point vibrational energy     719997.1 (Joules/Mol)
                                  172.08343 (Kcal/Mol)
 Warning -- explicit consideration of  21 degrees of freedom as
           vibrations may cause significant error
 Vibrational temperatures:     32.89    35.73    55.93    76.78    76.93
          (Kelvin)            101.81   261.64   291.30   291.93   353.34
                              374.09   374.14   588.26   588.42   593.43
                              600.16   618.00   618.01   733.15   733.28
                              743.10   910.38   910.42   911.30   995.48
                             1014.57  1014.68  1024.83  1025.07  1026.42
                             1095.51  1097.61  1097.68  1246.32  1246.54
                             1250.10  1342.22  1342.46  1344.39  1404.05
                             1404.28  1406.79  1439.29  1439.42  1440.48
                             1460.90  1460.92  1461.46  1514.65  1514.69
                             1514.92  1593.73  1594.36  1596.34  1598.25
                             1598.39  1605.90  1717.20  1717.79  1717.86
                             1754.15  1754.63  1756.54  1906.48  1911.72
                             1911.96  1963.95  1964.51  1964.88  2130.17
                             2130.82  2130.91  2202.84  2203.58  2203.71
                             2345.45  2345.83  2345.89  2368.47  2368.49
                             2371.05  4569.67  4569.69  4569.79  4579.11
                             4579.15  4579.26  4593.75  4593.84  4594.01
                             4609.66  4609.87  4610.36  4618.55  4618.81
                             4620.00

 Zero-point correction=                           0.274232 (Hartree/Particle)
 Thermal correction to Energy=                    0.290147
 Thermal correction to Enthalpy=                  0.291091
 Thermal correction to Gibbs Free Energy=         0.227826
 Sum of electronic and zero-point Energies=          -1036.024004
 Sum of electronic and thermal Energies=             -1036.008089
 Sum of electronic and thermal Enthalpies=           -1036.007145
 Sum of electronic and thermal Free Energies=        -1036.070411

                     E (Thermal)             CV                S
                      KCal/Mol        Cal/Mol-Kelvin    Cal/Mol-Kelvin
 Total                  182.070             62.531            133.153
 Electronic               0.000              0.000              0.000
 Translational            0.889              2.981             42.590
 Rotational               0.889              2.981             33.803
 Vibrational            180.293             56.569             56.760
 Vibration     1          0.593              1.985              6.369
 Vibration     2          0.593              1.985              6.205
 Vibration     3          0.594              1.981              5.316
 Vibration     4          0.596              1.976              4.689
 Vibration     5          0.596              1.976              4.685
 Vibration     6          0.598              1.968              4.132
 Vibration     7          0.630              1.864              2.309
 Vibration     8          0.639              1.836              2.111
 Vibration     9          0.639              1.836              2.107
 Vibration    10          0.660              1.770              1.762
 Vibration    11          0.668              1.746              1.662
 Vibration    12          0.668              1.746              1.662
 Vibration    13          0.773              1.451              0.931
 Vibration    14          0.773              1.451              0.930
 Vibration    15          0.776              1.443              0.918
 Vibration    16          0.780              1.433              0.902
 Vibration    17          0.791              1.406              0.860
 Vibration    18          0.791              1.406              0.860
 Vibration    19          0.865              1.229              0.635
 Vibration    20          0.865              1.229              0.634
 Vibration    21          0.872              1.213              0.618

                           ! Non-Optimized Parameters !
 Normal termination of Gaussian 16 at Sun Aug 23 04:44:50 2020.
 Gaussian 16:  ES64L-G16RevA.03 25-Dec-2016

 ----------------------------------------------------------------------
 # TD(NStates=10, Root=1) B3LYP/6-31G* scf=qc volume pop=NPA density=cu
 rrent Geom=AllCheck Guess=Read
 ----------------------------------------------------------------------

 Structure from the checkpoint file:  "phosphine_1_conf123.chk"
 -------------------
 Title Card Required
 -------------------
 Charge =  0 Multiplicity = 1

                         Standard orientation:
 ---------------------------------------------------------------------
 Center     Atomic      Atomic             Coordinates (Angstroms)
 Number     Number       Type             X           Y           Z
 ---------------------------------------------------------------------
      1          6           0        3.523116   -2.431115    0.651808
      2          6           0        2.869277   -2.856502   -0.506528
      3          6           0        1.820571   -2.102612   -1.032824
      4          6           0        1.393677   -0.921518   -0.402377
      5          6           0        2.060816   -0.503697    0.759291
      6          6           0        3.118625   -1.252279    1.280144
      7         15           0        0.000002   -0.000116   -1.206368
      8          6           0       -1.494935   -0.746215   -0.402526
      9          6           0       -1.466753   -1.533414    0.758791
     10          6           0       -2.644049   -2.075093    1.279547
     11          6           0       -3.867203   -1.835306    0.651486
     12          6           0       -3.908585   -1.055847   -0.506506
     13          6           0       -2.731252   -0.524736   -1.032736
     14          6           0        0.101172    1.667659   -0.402663
     15          6           0        0.912139    2.627254   -1.032119
     16          6           0        1.040872    3.912364   -0.505792
     17          6           0        0.344177    4.266571    0.651522
     18          6           0       -0.476075    3.327543    1.278798
     19          6           0       -0.595632    2.037169    0.757961
     20          1           0        4.347216   -3.011619    1.058212
     21          1           0        3.182777   -3.769381   -1.006422
     22          1           0        1.329166   -2.430059   -1.946289
     23          1           0        1.756193    0.411927    1.257211
     24          1           0        3.626304   -0.912734    2.179549
     25          1           0       -0.521487   -1.727927    1.256515
     26          1           0       -2.603900   -2.684956    2.178665
     27          1           0       -4.782067   -2.258633    1.057823
     28          1           0       -4.855922   -0.870388   -1.006188
     29          1           0       -2.769070    0.064984   -1.945929
     30          1           0        1.442547    2.364917   -1.944791
     31          1           0        1.675951    4.639778   -1.004861
     32          1           0        0.435028    5.270494    1.057940
     33          1           0       -1.025056    3.597945    2.177387
     34          1           0       -1.237462    1.316032    1.255048
 ---------------------------------------------------------------------

 SCF Done:  E(RB3LYP) =  -1036.29823667     a.u. after    1 cycles

 Excitation energies and oscillator strengths:

 Excited State   1:      Singlet-A      4.5099 eV  274.91 nm  f=0.1278  <S**2>=0.000
      69 -> 70         0.69716
 This state for optimization and/or second-order correction.
 Total Energy, E(TD-HF/TD-DFT) =  -1036.13249907
 Copying the excited state density for this state as the 1-particle RhoCI density.

 Excited State   2:      Singlet-A      4.5106 eV  274.87 nm  f=0.1280  <S**2>=0.000
      69 -> 71         0.69715

 Excited State   3:      Singlet-A      4.7569 eV  260.64 nm  f=0.0022  <S**2>=0.000
      67 -> 70        -0.12464
      68 -> 71        -0.12480
      69 -> 72         0.67468

 Excited State   4:      Singlet-A      5.0577 eV  245.14 nm  f=0.0002  <S**2>=0.000
      66 -> 70         0.16914
      67 -> 71        -0.11346
      68 -> 70        -0.11342
      69 -> 74         0.62999

 Excited State   5:      Singlet-A      5.0580 eV  245.13 nm  f=0.0002  <S**2>=0.000
      66 -> 71        -0.16929
      67 -> 70         0.11375
      68 -> 71        -0.11365
      69 -> 75         0.62981

 Excited State   6:      Singlet-A      5.1507 eV  240.71 nm  f=0.0085  <S**2>=0.000
      69 -> 73         0.67914

 Excited State   7:      Singlet-A      5.4275 eV  228.44 nm  f=0.0147  <S**2>=0.000
      63 -> 72         0.16610
      64 -> 74         0.14421
      65 -> 75        -0.14354
      67 -> 70         0.42109
      68 -> 71         0.41901
      69 -> 72         0.16512

 Excited State   8:      Singlet-A      5.5142 eV  224.84 nm  f=0.0004  <S**2>=0.000
      63 -> 74         0.14387
      64 -> 72         0.22703
      64 -> 74        -0.10540
      65 -> 72         0.16861
      65 -> 75        -0.10550
      66 -> 70        -0.22600
      67 -> 70        -0.11857
      67 -> 71         0.24392
      68 -> 70         0.24546
      68 -> 71         0.11999
      68 -> 72         0.16003
      69 -> 74         0.28703

 Excited State   9:      Singlet-A      5.5145 eV  224.83 nm  f=0.0004  <S**2>=0.000
      63 -> 75         0.14400
      64 -> 72         0.16869
      64 -> 75         0.10544
      65 -> 72        -0.22706
      65 -> 74        -0.10505
      66 -> 71         0.22556
      67 -> 70        -0.24366
      67 -> 71        -0.11885
      67 -> 72         0.16037
      68 -> 70        -0.11975
      68 -> 71         0.24643
      69 -> 75         0.28733

 Excited State  10:      Singlet-A      5.6181 eV  220.69 nm  f=0.0009  <S**2>=0.000
      65 -> 71        -0.10116
      67 -> 71        -0.48192
      68 -> 70         0.48428

 The electronic state is 1-A.
 Alpha  occ. eigenvalues --  -77.08113 -10.19447 -10.19447 -10.19447 -10.19147
 Alpha  occ. eigenvalues --  -10.19146 -10.19145 -10.19117 -10.19117 -10.19116
 Alpha  occ. eigenvalues --  -10.19031 -10.19031 -10.19030 -10.19007 -10.19007
 Alpha  occ. eigenvalues --  -10.19007 -10.18962 -10.18962 -10.18961  -6.54843
 Alpha  occ. eigenvalues --   -4.71102  -4.71102  -4.70601  -0.85560  -0.84846
 Alpha  occ. eigenvalues --   -0.84845  -0.76669  -0.74366  -0.74366  -0.74329
 Alpha  occ. eigenvalues --   -0.73821  -0.73821  -0.64436  -0.60336  -0.60307
 Alpha  occ. eigenvalues --   -0.60307  -0.59207  -0.59207  -0.55448  -0.51435
 Alpha  occ. eigenvalues --   -0.51435  -0.49295  -0.45440  -0.45440  -0.44774
 Alpha  occ. eigenvalues --   -0.44345  -0.44344  -0.44067  -0.41946  -0.41868
 Alpha  occ. eigenvalues --   -0.41868  -0.40378  -0.40377  -0.36844  -0.36351
 Alpha  occ. eigenvalues --   -0.36350  -0.35898  -0.34252  -0.34251  -0.34224
 Alpha  occ. eigenvalues --   -0.31884  -0.31883  -0.26777  -0.25448  -0.25446
 Alpha  occ. eigenvalues --   -0.25243  -0.24704  -0.24703  -0.21144
 Alpha virt. eigenvalues --   -0.01880  -0.01879  -0.00830   0.00173   0.00428
 Alpha virt. eigenvalues --    0.00430   0.06883   0.06886   0.09492   0.11039
 Alpha virt. eigenvalues --    0.11039   0.13903   0.14529   0.14529   0.15165

 Mulliken charges:
               1
     1  C   -0.164013
     2  C   -0.125169
     3  C   -0.163928
     4  C   -0.121943
     5  C   -0.175611
     6  C   -0.116405
     7  P    0.450619
     8  C   -0.119233
     9  C   -0.158995
    10  C   -0.123203
    11  C   -0.150178
    12  C   -0.117462
    13  C   -0.174513
    14  C   -0.079982
    15  C   -0.153838
    16  C   -0.120412
    17  C   -0.121975
    18  C   -0.118471
    19  C   -0.150961
    20  H    0.111135
    21  H    0.116647
    22  H    0.119471
    23  H    0.122828
    24  H    0.119210
    25  H    0.156458
    26  H    0.129223
    27  H    0.122651
    28  H    0.124136
    29  H    0.124020
    30  H    0.150616
    31  H    0.143761
    32  H    0.146765
    33  H    0.147241
    34  H    0.171513
 Sum of Mulliken charges =  -0.00000

 Dipole moment (field-independent basis, Debye):
    X=             -0.9629    Y=              3.6231    Z=             -0.1961  Tot=              3.7540
 Quadrupole moment (field-independent basis, Debye-Ang):
   XX=           -119.7322   YY=           -107.3331   ZZ=           -110.6652
   XY=              3.2577   XZ=             -1.0409   YZ=              0.8519

 Summary of Natural Population Analysis:

                                       Natural Population
                Natural  -----------------------------------------------
    Atom  No    Charge         Core      Valence    Rydberg      Total
 -----------------------------------------------------------------------
      C    1   -0.28778      1.99910     4.27226    0.01642     6.28778
      C    2   -0.24867      1.99910     4.23445    0.01513     6.24867
      C    3   -0.22155      1.99901     4.20646    0.01608     6.22155
      C    4   -0.46713      1.99886     4.44357    0.02470     6.46713
      C    5   -0.26549      1.99899     4.24854    0.01796     6.26549
      C    6   -0.22566      1.99909     4.21212    0.01444     6.22566
      P    7    1.24220      9.99750     3.71005    0.05025    13.75780
      C    8   -0.45391      1.99888     4.42870    0.02633     6.45391
      C    9   -0.22570      1.99899     4.20948    0.01722     6.22570
      C   10   -0.23709      1.99909     4.22343    0.01457     6.23709
      C   11   -0.25828      1.99909     4.24353    0.01566     6.25828
      C   12   -0.23418      1.99910     4.22058    0.01450     6.23418
      C   13   -0.23428      1.99902     4.21916    0.01610     6.23428
      C   14   -0.37563      1.99890     4.35225    0.02448     6.37563
      C   15   -0.19850      1.99902     4.18444    0.01505     6.19850
      C   16   -0.23773      1.99910     4.22429    0.01434     6.23773
      C   17   -0.19852      1.99909     4.18567    0.01375     6.19852
      C   18   -0.22736      1.99909     4.21426    0.01400     6.22736
      C   19   -0.21161      1.99899     4.19641    0.01620     6.21161
      H   20    0.22700      0.00000     0.77210    0.00089     0.77300
      H   21    0.23128      0.00000     0.76783    0.00089     0.76872
      H   22    0.22746      0.00000     0.77145    0.00110     0.77254
      H   23    0.23188      0.00000     0.76671    0.00141     0.76812
      H   24    0.23279      0.00000     0.76633    0.00088     0.76721
      H   25    0.25023      0.00000     0.74824    0.00153     0.74977
      H   26    0.23757      0.00000     0.76154    0.00089     0.76243
      H   27    0.23189      0.00000     0.76720    0.00091     0.76811
      H   28    0.23408      0.00000     0.76496    0.00096     0.76592
      H   29    0.22842      0.00000     0.77058    0.00100     0.77158
      H   30    0.24329      0.00000     0.75548    0.00123     0.75671
      H   31    0.24371      0.00000     0.75541    0.00088     0.75629
      H   32    0.24236      0.00000     0.75682    0.00082     0.75764
      H   33    0.24581      0.00000     0.75334    0.00086     0.75419
      H   34    0.25907      0.00000     0.73974    0.00120     0.74093
 =======================================================================
   * Total *    0.00000     45.98001    91.64740    0.37260   138.00000

 Normal termination of Gaussian 16 at Sun Aug 23 04:56:31 2020.
