 Gaussian 16, Revision A.03,

 ---------------------------------
 # opt=CalcAll B3LYP/6-31G* scf=qc
 ---------------------------------

 -------------------
 Title Card Required
 -------------------
 Symbolic Z-matrix:
 Charge =  0 Multiplicity = 1

 SCF Done:  E(RB3LYP) =  -1075.58465551     a.u. after    8 cycles
 SCF Done:  E(RB3LYP) =  -1075.58632292     a.u. after   15 cycles
 SCF Done:  E(RB3LYP) =  -1075.61057348     a.u. after   17 cycles
 SCF Done:  E(RB3LYP) =  -1075.61406712     a.u. after   17 cycles
 SCF Done:  E(RB3LYP) =  -1075.61513126     a.u. after   17 cycles
 SCF Done:  E(RB3LYP) =  -1075.61597090     a.u. after   15 cycles
 SCF Done:  E(RB3LYP) =  -1075.61635141     a.u. after   15 cycles
 SCF Done:  E(RB3LYP) =  -1075.61649264     a.u. after   13 cycles
 SCF Done:  E(RB3LYP) =  -1075.61651867     a.u. after   11 cycles
 SCF Done:  E(RB3LYP) =  -1075.61652454     a.u. after    6 cycles
 SCF Done:  E(RB3LYP) =  -1075.61652506     a.u. after    2 cycles
 Optimization completed on the basis of negligible forces.
    -- Stationary point found.
 Normal termination of Gaussian 16 at Sat Aug 22 21:19:17 2020.

 ----------------------------------------------------------------------
 # freq B3LYP/6-31G* scf=qc volume NMR pop=NPA density=current Geom=All
 Check Guess=Read
 ----------------------------------------------------------------------

 Structure from the checkpoint file:  "phosphine_10_conf232.chk"
 -------------------
 Title Card Required
 -------------------
 Charge =  0 Multiplicity = 1

 SCF Done:  E(RB3LYP) =  -1075.61652506     a.u. after    1 cycles

      1  C    Isotropic =   167.7465   Anisotropy =    35.2691

      2  C    Isotropic =    57.9266   Anisotropy =   180.8186

      3  C    Isotropic =    67.8313   Anisotropy =   150.7576

      4  C    Isotropic =    60.7453   Anisotropy =   160.8661

      5  C    Isotropic =    59.2120   Anisotropy =   175.8028

      6  C    Isotropic =    62.2497   Anisotropy =   170.8577

      7  C    Isotropic =    67.4179   Anisotropy =   144.5274

      8  P    Isotropic =   362.7804   Anisotropy =    38.9135

      9  C    Isotropic =    55.6852   Anisotropy =   180.0671

     10  C    Isotropic =    61.1239   Anisotropy =   164.0951

     11  C    Isotropic =    68.7803   Anisotropy =   163.9979

     12  C    Isotropic =    68.3382   Anisotropy =   167.0508

     13  C    Isotropic =    68.7571   Anisotropy =   163.7235

     14  C    Isotropic =    62.6992   Anisotropy =   173.8123

     15  C    Isotropic =    56.0081   Anisotropy =   179.7750

     16  C    Isotropic =    61.0991   Anisotropy =   164.1956

     17  C    Isotropic =    68.7724   Anisotropy =   163.9397

     18  C    Isotropic =    68.2654   Anisotropy =   167.0041

     19  C    Isotropic =    68.7499   Anisotropy =   163.6714

     20  C    Isotropic =    62.7360   Anisotropy =   174.2287

     21  H    Isotropic =    29.9209   Anisotropy =     8.0343

     22  H    Isotropic =    30.3175   Anisotropy =     7.0568

     23  H    Isotropic =    29.7245   Anisotropy =     8.4647

     24  H    Isotropic =    25.0527   Anisotropy =     6.5357

     25  H    Isotropic =    24.6607   Anisotropy =     9.0911

     26  H    Isotropic =    25.4780   Anisotropy =    12.2684

     27  H    Isotropic =    25.2531   Anisotropy =     7.7224

     28  H    Isotropic =    24.6377   Anisotropy =     9.2938

     29  H    Isotropic =    24.9450   Anisotropy =     4.5943

     30  H    Isotropic =    25.0402   Anisotropy =     3.6161

     31  H    Isotropic =    25.0662   Anisotropy =     6.0821

     32  H    Isotropic =    25.4266   Anisotropy =    12.2088

     33  H    Isotropic =    24.6257   Anisotropy =     9.3015

     34  H    Isotropic =    24.9361   Anisotropy =     4.5750

     35  H    Isotropic =    25.0281   Anisotropy =     3.6583

     36  H    Isotropic =    25.0462   Anisotropy =     6.1674

     37  H    Isotropic =    25.3648   Anisotropy =    12.1744

  Exact polarizability: 250.570  -0.017 231.645  -0.835  -1.248 174.576
 Approx polarizability: 353.299  -0.277 342.739  -0.867  -1.350 323.276

                      1                      2                      3
                      A                      A                      A
 Frequencies --     16.1888                22.5619                24.1852
 Red. masses --      1.0626                 3.7576                 3.3407
 Frc consts  --      0.0002                 0.0011                 0.0012
 IR Inten    --      0.2081                 0.2633                 0.3197

                      4                      5                      6
                      A                      A                      A
 Frequencies --     39.3895                42.8791                52.0984
 Red. masses --      3.6506                 4.5481                 5.1346
 Frc consts  --      0.0033                 0.0049                 0.0082
 IR Inten    --      0.0062                 0.1471                 0.0750

                      7                      8                      9
                      A                      A                      A
 Frequencies --     64.1674               138.7322               178.1739
 Red. masses --      4.9507                 4.2137                 4.4980
 Frc consts  --      0.0120                 0.0478                 0.0841
 IR Inten    --      0.3005                 0.5823                 0.4550

                     10                     11                     12
                      A                      A                      A
 Frequencies --    199.5812               231.1721               237.2316
 Red. masses --      4.6429                 5.2548                 4.4549
 Frc consts  --      0.1090                 0.1655                 0.1477
 IR Inten    --      1.0473                 0.4750                 0.4450

                     13                     14                     15
                      A                      A                      A
 Frequencies --    255.6041               307.3158               355.9413
 Red. masses --      4.8933                 4.5474                 2.9322
 Frc consts  --      0.1884                 0.2530                 0.2189
 IR Inten    --      0.2004                 0.6574                 0.6702

                     16                     17                     18
                      A                      A                      A
 Frequencies --    406.8213               409.2462               413.7508
 Red. masses --      4.2232                 3.0389                 3.2905
 Frc consts  --      0.4118                 0.2999                 0.3319
 IR Inten    --      6.9762                 1.5517                 0.7657

                     19                     20                     21
                      A                      A                      A
 Frequencies --    417.8154               424.4739               439.9768
 Red. masses --      3.8294                 5.7035                 7.4775
 Frc consts  --      0.3939                 0.6055                 0.8528
 IR Inten    --      2.4115                 1.6545                 8.3984

                     22                     23                     24
                      A                      A                      A
 Frequencies --    506.3343               514.9007               523.4495
 Red. masses --      4.0134                 4.3399                 3.1991
 Frc consts  --      0.6062                 0.6779                 0.5165
 IR Inten    --     20.5744                18.4270                22.5332

                     25                     26                     27
                      A                      A                      A
 Frequencies --    622.0133               632.9154               634.3328
 Red. masses --      5.6087                 6.4283                 6.3771
 Frc consts  --      1.2785                 1.5172                 1.5118
 IR Inten    --      9.7640                 0.1517                 1.8004

                     28                     29                     30
                      A                      A                      A
 Frequencies --    654.1746               697.2712               705.1618
 Red. masses --      6.9638                 6.6233                 5.9112
 Frc consts  --      1.7558                 1.8973                 1.7318
 IR Inten    --      0.0473                 1.1183                 1.8998

                     31                     32                     33
                      A                      A                      A
 Frequencies --    711.8640               712.9500               727.6448
 Red. masses --      2.1537                 2.1319                 3.8419
 Frc consts  --      0.6430                 0.6385                 1.1985
 IR Inten    --     24.6545                20.6682                 2.4849

                     34                     35                     36
                      A                      A                      A
 Frequencies --    761.8483               762.4780               814.1228
 Red. masses --      1.6349                 1.6389                 4.8197
 Frc consts  --      0.5591                 0.5614                 1.8821
 IR Inten    --     21.4959                24.7400                 0.4520

                     37                     38                     39
                      A                      A                      A
 Frequencies --    826.3216               862.8149               866.1637
 Red. masses --      1.3714                 1.2486                 1.2477
 Frc consts  --      0.5517                 0.5476                 0.5515
 IR Inten    --     22.0465                 0.3066                 0.2446

                     40                     41                     42
                      A                      A                      A
 Frequencies --    868.1684               932.5625               933.4830
 Red. masses --      1.2465                 1.3447                 1.3415
 Frc consts  --      0.5535                 0.6890                 0.6888
 IR Inten    --      0.0968                 1.2421                 0.4950

                     43                     44                     45
                      A                      A                      A
 Frequencies --    971.7559               973.2464               975.7206
 Red. masses --      1.2868                 1.3292                 1.3606
 Frc consts  --      0.7159                 0.7418                 0.7632
 IR Inten    --      0.0904                 0.0238                 0.0210

                     46                     47                     48
                      A                      A                      A
 Frequencies --    977.3983               999.9491              1000.4825
 Red. masses --      1.3474                 1.2532                 1.2522
 Frc consts  --      0.7584                 0.7383                 0.7385
 IR Inten    --      0.1155                 0.0930                 0.0282

                     49                     50                     51
                      A                      A                      A
 Frequencies --   1015.3444              1015.5785              1018.0311
 Red. masses --      6.2454                 6.2483                 1.4466
 Frc consts  --      3.7935                 3.7970                 0.8834
 IR Inten    --      4.2762                 1.8072                 1.2509

                     52                     53                     54
                      A                      A                      A
 Frequencies --   1037.8219              1052.7467              1052.9131
 Red. masses --      3.5902                 3.3147                 3.2749
 Frc consts  --      2.2783                 2.1644                 2.1391
 IR Inten    --      4.7473                 2.1755                 0.8128

                     55                     56                     57
                      A                      A                      A
 Frequencies --   1075.2457              1107.9983              1108.7946
 Red. masses --      1.5300                 1.8764                 1.9821
 Frc consts  --      1.0422                 1.3573                 1.4358
 IR Inten    --      9.0913                 3.7640                 6.5550

                     58                     59                     60
                      A                      A                      A
 Frequencies --   1110.1147              1110.7041              1116.0724
 Red. masses --      2.4278                 2.2356                 2.8512
 Frc consts  --      1.7628                 1.6249                 2.0925
 IR Inten    --     10.7923                 9.4341                 1.0879

                     61                     62                     63
                      A                      A                      A
 Frequencies --   1150.4161              1193.4942              1193.7637
 Red. masses --      1.3590                 1.1021                 1.0999
 Frc consts  --      1.0597                 0.9249                 0.9235
 IR Inten    --      1.7622                 0.0472                 0.1317

                     64                     65                     66
                      A                      A                      A
 Frequencies --   1219.2812              1220.3646              1226.1664
 Red. masses --      1.1477                 1.1476                 1.1421
 Frc consts  --      1.0052                 1.0070                 1.0117
 IR Inten    --      6.0023                 3.9114                 7.5728

                     67                     68                     69
                      A                      A                      A
 Frequencies --   1241.4931              1324.5693              1328.0776
 Red. masses --      2.9396                 3.8627                 3.9196
 Frc consts  --      2.6695                 3.9929                 4.0732
 IR Inten    --      1.5189                 3.2958                 3.3504

                     70                     71                     72
                      A                      A                      A
 Frequencies --   1328.7864              1352.8899              1365.2229
 Red. masses --      3.4984                 1.5126                 1.6562
 Frc consts  --      3.6394                 1.6312                 1.8187
 IR Inten    --      2.5542                 0.2955                 0.3294

                     73                     74                     75
                      A                      A                      A
 Frequencies --   1365.6369              1441.7743              1442.6741
 Red. masses --      1.6410                 2.1706                 1.3420
 Frc consts  --      1.8032                 2.6585                 1.6457
 IR Inten    --      1.8402                 5.1255                 1.1714

                     76                     77                     78
                      A                      A                      A
 Frequencies --   1480.5791              1480.9621              1516.6426
 Red. masses --      2.1129                 2.1166                 1.0529
 Frc consts  --      2.7290                 2.7351                 1.4270
 IR Inten    --     12.9271                 6.9278                 5.6298

                     79                     80                     81
                      A                      A                      A
 Frequencies --   1520.6908              1531.2924              1531.6043
 Red. masses --      1.0948                 2.0062                 1.9984
 Frc consts  --      1.4917                 2.7717                 2.7620
 IR Inten    --      8.8417                 5.0486                10.3748

                     82                     83                     84
                      A                      A                      A
 Frequencies --   1547.1865              1614.0091              1630.2294
 Red. masses --      2.2386                 5.1576                 5.1037
 Frc consts  --      3.1573                 7.9161                 7.9916
 IR Inten    --     13.6436                 0.3581                 0.2825

                     85                     86                     87
                      A                      A                      A
 Frequencies --   1630.4499              1646.1775              1647.3456
 Red. masses --      5.1156                 5.2716                 5.2788
 Frc consts  --      8.0123                 8.4168                 8.4403
 IR Inten    --      0.1342                 3.7890                 1.4456

                     88                     89                     90
                      A                      A                      A
 Frequencies --   1659.5815              3040.8335              3096.1319
 Red. masses --      5.5349                 1.0400                 1.0968
 Frc consts  --      8.9816                 5.6661                 6.1948
 IR Inten    --      5.9712                36.6536                20.8107

                     91                     92                     93
                      A                      A                      A
 Frequencies --   3125.0396              3170.7425              3174.8808
 Red. masses --      1.1020                 1.0868                 1.0885
 Frc consts  --      6.3409                 6.4376                 6.4647
 IR Inten    --     15.6508                11.8079                19.1066

                     94                     95                     96
                      A                      A                      A
 Frequencies --   3175.6250              3175.6713              3182.1172
 Red. masses --      1.0853                 1.0853                 1.0875
 Frc consts  --      6.4486                 6.4487                 6.4881
 IR Inten    --      2.2324                 2.4073                 0.6938

                     97                     98                     99
                      A                      A                      A
 Frequencies --   3182.2356              3188.5023              3192.4133
 Red. masses --      1.0875                 1.0941                 1.0917
 Frc consts  --      6.4888                 6.5534                 6.5550
 IR Inten    --      0.5058                22.2491                11.0574

                    100                    101                    102
                      A                      A                      A
 Frequencies --   3192.4992              3203.6018              3203.8403
 Red. masses --      1.0917                 1.0942                 1.0942
 Frc consts  --      6.5558                 6.6163                 6.6174
 IR Inten    --     35.6238                42.1241                17.3384

                    103                    104                    105
                      A                      A                      A
 Frequencies --   3205.7137              3209.8001              3210.4366
 Red. masses --      1.0921                 1.0955                 1.0955
 Frc consts  --      6.6122                 6.6502                 6.6525
 IR Inten    --      6.4000                19.2671                18.2065

 - Thermochemistry -
 -------------------
 Temperature   298.150 Kelvin.  Pressure   1.00000 Atm.
 Atom     1 has atomic number  6 and mass  12.00000

 Molecular mass:   276.10679 amu.
 Principal axes and moments of inertia in atomic units:
                           1         2         3
     Eigenvalues --  5221.168956873.42028**********
           X            0.99999  -0.00091   0.00304
           Y            0.00091   1.00000  -0.00017
           Z           -0.00304   0.00017   1.00000
 This molecule is an asymmetric top.
 Rotational symmetry number  1.
 Warning -- assumption of classical behavior for rotation
           may cause significant error
 Rotational temperatures (Kelvin)      0.01659     0.01260     0.00839
 Rotational constants (GHZ):           0.34566     0.26257     0.17479
 Zero-point vibrational energy     792105.2 (Joules/Mol)
                                  189.31768 (Kcal/Mol)
 Warning -- explicit consideration of  24 degrees of freedom as
           vibrations may cause significant error
 Vibrational temperatures:     23.29    32.46    34.80    56.67    61.69
          (Kelvin)             74.96    92.32   199.60   256.35   287.15
                              332.61   341.32   367.76   442.16   512.12
                              585.33   588.81   595.30   601.14   610.72
                              633.03   728.50   740.83   753.13   894.94
                              910.62   912.66   941.21  1003.22  1014.57
                             1024.21  1025.78  1046.92  1096.13  1097.04
                             1171.34  1188.89  1241.40  1246.22  1249.10
                             1341.75  1343.07  1398.14  1400.28  1403.84
                             1406.26  1438.70  1439.47  1460.85  1461.19
                             1464.72  1493.19  1514.67  1514.91  1547.04
                             1594.16  1595.31  1597.21  1598.06  1605.78
                             1655.19  1717.17  1717.56  1754.27  1755.83
                             1764.18  1786.23  1905.76  1910.81  1911.83
                             1946.51  1964.25  1964.85  2074.39  2075.69
                             2130.22  2130.77  2182.11  2187.93  2203.19
                             2203.64  2226.06  2322.20  2345.54  2345.85
                             2368.48  2370.16  2387.77  4375.08  4454.64
                             4496.23  4561.99  4567.95  4569.02  4569.08
                             4578.36  4578.53  4587.54  4593.17  4593.29
                             4609.27  4609.61  4612.31  4618.19  4619.10

 Zero-point correction=                           0.301697 (Hartree/Particle)
 Thermal correction to Energy=                    0.319562
 Thermal correction to Enthalpy=                  0.320506
 Thermal correction to Gibbs Free Energy=         0.251466
 Sum of electronic and zero-point Energies=          -1075.314828
 Sum of electronic and thermal Energies=             -1075.296963
 Sum of electronic and thermal Enthalpies=           -1075.296019
 Sum of electronic and thermal Free Energies=        -1075.365059

                     E (Thermal)             CV                S
                      KCal/Mol        Cal/Mol-Kelvin    Cal/Mol-Kelvin
 Total                  200.528             68.561            145.307
 Electronic               0.000              0.000              0.000
 Translational            0.889              2.981             42.745
 Rotational               0.889              2.981             34.271
 Vibrational            198.751             62.600             68.291
 Vibration     1          0.593              1.986              7.054
 Vibration     2          0.593              1.985              6.395
 Vibration     3          0.593              1.985              6.257
 Vibration     4          0.594              1.981              5.290
 Vibration     5          0.595              1.980              5.121
 Vibration     6          0.596              1.977              4.736
 Vibration     7          0.597              1.971              4.325
 Vibration     8          0.614              1.915              2.821
 Vibration     9          0.629              1.869              2.347
 Vibration    10          0.638              1.840              2.137
 Vibration    11          0.653              1.793              1.870
 Vibration    12          0.656              1.784              1.824
 Vibration    13          0.666              1.753              1.692
 Vibration    14          0.697              1.660              1.377
 Vibration    15          0.731              1.563              1.140
 Vibration    16          0.772              1.455              0.938
 Vibration    17          0.774              1.450              0.929
 Vibration    18          0.777              1.440              0.913
 Vibration    19          0.781              1.432              0.899
 Vibration    20          0.786              1.417              0.877
 Vibration    21          0.800              1.383              0.827
 Vibration    22          0.862              1.236              0.642
 Vibration    23          0.870              1.217              0.622
 Vibration    24          0.878              1.198              0.602

 Optimization completed on the basis of negligible forces.
    -- Stationary point found.
 Normal termination of Gaussian 16 at Sat Aug 22 21:33:10 2020.
 Gaussian 16:  ES64L-G16RevA.03 25-Dec-2016

 ----------------------------------------------------------------------
 # TD(NStates=10, Root=1) B3LYP/6-31G* scf=qc volume pop=NPA density=cu
 rrent Geom=AllCheck Guess=Read
 ----------------------------------------------------------------------

 Structure from the checkpoint file:  "phosphine_10_conf233.chk"
 -------------------
 Title Card Required
 -------------------
 Charge =  0 Multiplicity = 1

                         Standard orientation:
 ---------------------------------------------------------------------
 Center     Atomic      Atomic             Coordinates (Angstroms)
 Number     Number       Type             X           Y           Z
 ---------------------------------------------------------------------
      1          6           0       -5.446766    0.035382   -0.767110
      2          6           0       -4.011680   -0.000330   -0.296462
      3          6           0       -3.616203    0.689311    0.858541
      4          6           0       -2.292112    0.668029    1.289579
      5          6           0       -1.307374   -0.031661    0.571531
      6          6           0       -1.702643   -0.726468   -0.580199
      7          6           0       -3.033448   -0.710916   -1.001778
      8         15           0        0.415004   -0.000774    1.251374
      9          6           0        1.214581   -1.432243    0.384926
     10          6           0        1.126832   -2.685195    1.015168
     11          6           0        1.707055   -3.816984    0.443051
     12          6           0        2.403120   -3.711704   -0.763096
     13          6           0        2.510221   -2.470680   -1.392563
     14          6           0        1.919091   -1.339580   -0.825059
     15          6           0        1.168165    1.460265    0.392900
     16          6           0        2.360672    1.969735    0.934375
     17          6           0        2.992471    3.074023    0.363029
     18          6           0        2.431093    3.701262   -0.751310
     19          6           0        1.239323    3.214482   -1.290497
     20          6           0        0.613092    2.101490   -0.724947
     21          1           0       -6.146497   -0.066635    0.070215
     22          1           0       -5.654755   -0.767974   -1.481096
     23          1           0       -5.678394    0.986155   -1.265607
     24          1           0       -4.357812    1.239461    1.434242
     25          1           0       -2.018566    1.195164    2.200915
     26          1           0       -0.970619   -1.291323   -1.149837
     27          1           0       -3.315630   -1.263231   -1.895813
     28          1           0        0.602973   -2.771801    1.964494
     29          1           0        1.625135   -4.778232    0.943927
     30          1           0        2.864707   -4.590475   -1.205840
     31          1           0        3.054557   -2.380403   -2.329345
     32          1           0        2.010255   -0.379804   -1.324654
     33          1           0        2.793754    1.498718    1.814017
     34          1           0        3.916436    3.451083    0.793950
     35          1           0        2.916290    4.568129   -1.192281
     36          1           0        0.794204    3.700781   -2.155030
     37          1           0       -0.314024    1.732672   -1.153349
 ---------------------------------------------------------------------

 SCF Done:  E(RB3LYP) =  -1075.61652506     a.u. after    1 cycles

 Excitation energies and oscillator strengths:

 Excited State   1:      Singlet-A      4.4830 eV  276.56 nm  f=0.1258  <S**2>=0.000
      73 -> 74         0.69082
 This state for optimization and/or second-order correction.
 Total Energy, E(TD-HF/TD-DFT) =  -1075.45177757
 Copying the excited state density for this state as the 1-particle RhoCI density.

 Excited State   2:      Singlet-A      4.5046 eV  275.24 nm  f=0.1548  <S**2>=0.000
      73 -> 75         0.69007

 Excited State   3:      Singlet-A      4.7347 eV  261.87 nm  f=0.0040  <S**2>=0.000
      73 -> 76         0.67520

 Excited State   4:      Singlet-A      5.0210 eV  246.93 nm  f=0.0004  <S**2>=0.000
      69 -> 74         0.11610
      69 -> 75         0.11978
      71 -> 75         0.14498
      73 -> 77        -0.26404
      73 -> 78         0.44096
      73 -> 79        -0.36873

 Excited State   5:      Singlet-A      5.0389 eV  246.06 nm  f=0.0004  <S**2>=0.000
      69 -> 74         0.13041
      70 -> 75        -0.12078
      71 -> 74        -0.12721
      73 -> 77         0.11358
      73 -> 78         0.44577
      73 -> 79         0.44297

 Excited State   6:      Singlet-A      5.1317 eV  241.60 nm  f=0.0088  <S**2>=0.000
      72 -> 75         0.10234
      73 -> 77         0.61331
      73 -> 78         0.11918
      73 -> 79        -0.25811

 Excited State   7:      Singlet-A      5.3922 eV  229.93 nm  f=0.0108  <S**2>=0.000
      67 -> 76        -0.14104
      71 -> 74         0.26254
      71 -> 75         0.29253
      72 -> 74         0.40018
      72 -> 75        -0.23957
      72 -> 78         0.10702
      72 -> 79        -0.11249
      73 -> 76        -0.15014

 Excited State   8:      Singlet-A      5.4755 eV  226.44 nm  f=0.0010  <S**2>=0.000
      68 -> 75        -0.11788
      68 -> 78         0.11505
      69 -> 74         0.17546
      69 -> 75         0.16968
      70 -> 74        -0.19596
      70 -> 76        -0.17993
      71 -> 75         0.19710
      71 -> 77        -0.10637
      72 -> 74        -0.20833
      72 -> 76         0.30978
      72 -> 79        -0.13855
      73 -> 78        -0.19053
      73 -> 79         0.20062

 Excited State   9:      Singlet-A      5.5080 eV  225.10 nm  f=0.0004  <S**2>=0.000
      67 -> 78         0.11968
      67 -> 79         0.10812
      68 -> 74        -0.12150
      68 -> 76         0.28941
      68 -> 79         0.11356
      69 -> 74        -0.19291
      69 -> 75         0.11250
      70 -> 75         0.24651
      71 -> 74         0.24630
      71 -> 76         0.15907
      72 -> 75         0.19583
      72 -> 78         0.12073
      73 -> 78         0.19415
      73 -> 79         0.19215

 Excited State  10:      Singlet-A      5.5925 eV  221.70 nm  f=0.0275  <S**2>=0.000
      67 -> 76         0.11361
      68 -> 74         0.10745
      69 -> 75         0.11496
      70 -> 74        -0.27202
      70 -> 75         0.27054
      71 -> 74        -0.29310
      72 -> 74         0.39121

 The electronic state is 1-A.
 Alpha  occ. eigenvalues --  -77.07945 -10.19772 -10.19314 -10.19304 -10.19069
 Alpha  occ. eigenvalues --  -10.19041 -10.19025 -10.19000 -10.18987 -10.18924
 Alpha  occ. eigenvalues --  -10.18911 -10.18906 -10.18902 -10.18889 -10.18840
 Alpha  occ. eigenvalues --  -10.18832 -10.18766 -10.18564 -10.18547 -10.18476
 Alpha  occ. eigenvalues --   -6.54672  -4.70932  -4.70930  -4.70430  -0.85537
 Alpha  occ. eigenvalues --   -0.84932  -0.84725  -0.77631  -0.75297  -0.74226
 Alpha  occ. eigenvalues --   -0.74185  -0.74071  -0.73692  -0.68847  -0.63430
 Alpha  occ. eigenvalues --   -0.60389  -0.60195  -0.60056  -0.59113  -0.58030
 Alpha  occ. eigenvalues --   -0.55276  -0.51322  -0.50558  -0.47949  -0.45989
 Alpha  occ. eigenvalues --   -0.45192  -0.45025  -0.44442  -0.44215  -0.43866
 Alpha  occ. eigenvalues --   -0.41977  -0.41781  -0.41714  -0.41515  -0.40307
 Alpha  occ. eigenvalues --   -0.39438  -0.38507  -0.36528  -0.36181  -0.35810
 Alpha  occ. eigenvalues --   -0.35187  -0.34113  -0.34091  -0.33601  -0.31726
 Alpha  occ. eigenvalues --   -0.31686  -0.26498  -0.25315  -0.25096  -0.24910
 Alpha  occ. eigenvalues --   -0.24542  -0.24341  -0.20883
 Alpha virt. eigenvalues --   -0.01756  -0.01675  -0.00680   0.00288   0.00541
 Alpha virt. eigenvalues --    0.00590   0.06946   0.07105   0.09697   0.10948
 Alpha virt. eigenvalues --    0.11222   0.12876   0.13552   0.13897   0.14597

 Mulliken charges:
               1
     1  C   -0.531634
     2  C    0.176680
     3  C   -0.169570
     4  C   -0.151880
     5  C   -0.082510
     6  C   -0.154639
     7  C   -0.167257
     8  P    0.441955
     9  C   -0.106341
    10  C   -0.170209
    11  C   -0.117143
    12  C   -0.138964
    13  C   -0.122962
    14  C   -0.154547
    15  C   -0.130583
    16  C   -0.170709
    17  C   -0.123180
    18  C   -0.170426
    19  C   -0.119017
    20  C   -0.174613
    21  H    0.165126
    22  H    0.161757
    23  H    0.174972
    24  H    0.132460
    25  H    0.147078
    26  H    0.160026
    27  H    0.135611
    28  H    0.132126
    29  H    0.130389
    30  H    0.131260
    31  H    0.135711
    32  H    0.167912
    33  H    0.112866
    34  H    0.111725
    35  H    0.104980
    36  H    0.113867
    37  H    0.119683
 Sum of Mulliken charges =  -0.00000

 Dipole moment (field-independent basis, Debye):
    X=             -3.4533    Y=             -2.7016    Z=              0.1994  Tot=              4.3890
 Quadrupole moment (field-independent basis, Debye-Ang):
   XX=           -112.8559   YY=           -125.7358   ZZ=           -117.3268
   XY=             -6.0516   XZ=              0.6348   YZ=              1.2624

 Summary of Natural Population Analysis:

                                       Natural Population
                Natural  -----------------------------------------------
    Atom  No    Charge         Core      Valence    Rydberg      Total
 -----------------------------------------------------------------------
      C    1   -0.69285      1.99939     4.68602    0.00744     6.69285
      C    2   -0.00250      1.99903     3.98926    0.01422     6.00250
      C    3   -0.24041      1.99902     4.22771    0.01367     6.24041
      C    4   -0.19016      1.99902     4.17581    0.01533     6.19016
      C    5   -0.38411      1.99889     4.36125    0.02398     6.38411
      C    6   -0.21879      1.99899     4.20293    0.01687     6.21879
      C    7   -0.22138      1.99902     4.20937    0.01299     6.22138
      P    8    1.22810      9.99753     3.72398    0.05039    13.77190
      C    9   -0.42664      1.99890     4.40147    0.02627     6.42664
      C   10   -0.22506      1.99902     4.21031    0.01573     6.22506
      C   11   -0.23323      1.99910     4.21982    0.01431     6.23323
      C   12   -0.23501      1.99909     4.22100    0.01492     6.23501
      C   13   -0.23585      1.99909     4.22237    0.01439     6.23585
      C   14   -0.21461      1.99899     4.19885    0.01677     6.21461
      C   15   -0.48348      1.99886     4.45934    0.02529     6.48348
      C   16   -0.23360      1.99901     4.21822    0.01637     6.23360
      C   17   -0.24528      1.99910     4.23113    0.01505     6.24528
      C   18   -0.30158      1.99910     4.28570    0.01678     6.30158
      C   19   -0.23121      1.99909     4.21751    0.01461     6.23121
      C   20   -0.26288      1.99899     4.24601    0.01789     6.26288
      H   21    0.24429      0.00000     0.75466    0.00106     0.75571
      H   22    0.24103      0.00000     0.75814    0.00082     0.75897
      H   23    0.25078      0.00000     0.74818    0.00104     0.74922
      H   24    0.23855      0.00000     0.76039    0.00106     0.76145
      H   25    0.24256      0.00000     0.75621    0.00122     0.75744
      H   26    0.25358      0.00000     0.74518    0.00123     0.74642
      H   27    0.24017      0.00000     0.75877    0.00105     0.75983
      H   28    0.23268      0.00000     0.76624    0.00108     0.76732
      H   29    0.23691      0.00000     0.76213    0.00096     0.76309
      H   30    0.23556      0.00000     0.76355    0.00089     0.76444
      H   31    0.24043      0.00000     0.75868    0.00089     0.75957
      H   32    0.25670      0.00000     0.74188    0.00142     0.74330
      H   33    0.22389      0.00000     0.77507    0.00103     0.77611
      H   34    0.22878      0.00000     0.77031    0.00090     0.77122
      H   35    0.22428      0.00000     0.77482    0.00089     0.77572
      H   36    0.23028      0.00000     0.76884    0.00088     0.76972
      H   37    0.23006      0.00000     0.76844    0.00150     0.76994
 =======================================================================
   * Total *   -0.00000     47.97922    97.63958    0.38120   146.00000

 Normal termination of Gaussian 16 at Sat Aug 22 21:45:47 2020.
