 Gaussian 16, Revision A.03,

 ---------------------------------
 # opt=CalcAll B3LYP/6-31G* scf=qc
 ---------------------------------

 -------------------
 Title Card Required
 -------------------
 Symbolic Z-matrix:
 Charge =  0 Multiplicity = 1

 SCF Done:  E(RB3LYP) =  -1075.60171011     a.u. after    8 cycles
 SCF Done:  E(RB3LYP) =  -1075.61216667     a.u. after   17 cycles
 SCF Done:  E(RB3LYP) =  -1075.61497307     a.u. after   15 cycles
 SCF Done:  E(RB3LYP) =  -1075.61602685     a.u. after   15 cycles
 SCF Done:  E(RB3LYP) =  -1075.61640187     a.u. after   13 cycles
 SCF Done:  E(RB3LYP) =  -1075.61650532     a.u. after   13 cycles
 SCF Done:  E(RB3LYP) =  -1075.61649538     a.u. after   11 cycles
 SCF Done:  E(RB3LYP) =  -1075.61652076     a.u. after   11 cycles
 SCF Done:  E(RB3LYP) =  -1075.61652405     a.u. after    7 cycles
 SCF Done:  E(RB3LYP) =  -1075.61652468     a.u. after    3 cycles
 SCF Done:  E(RB3LYP) =  -1075.61652497     a.u. after    4 cycles
 SCF Done:  E(RB3LYP) =  -1075.61652505     a.u. after    3 cycles
 SCF Done:  E(RB3LYP) =  -1075.61652508     a.u. after    3 cycles
 Optimization completed on the basis of negligible forces.
    -- Stationary point found.
 Normal termination of Gaussian 16 at Sat Aug 22 23:07:41 2020.

 ----------------------------------------------------------------------
 # freq B3LYP/6-31G* scf=qc volume NMR pop=NPA density=current Geom=All
 Check Guess=Read
 ----------------------------------------------------------------------

 Structure from the checkpoint file:  "phosphine_10_conf302.chk"
 -------------------
 Title Card Required
 -------------------
 Charge =  0 Multiplicity = 1

 SCF Done:  E(RB3LYP) =  -1075.61652508     a.u. after    1 cycles

      1  C    Isotropic =   167.7500   Anisotropy =    35.2851

      2  C    Isotropic =    57.9299   Anisotropy =   180.8151

      3  C    Isotropic =    67.8385   Anisotropy =   150.9072

      4  C    Isotropic =    60.7502   Anisotropy =   160.8750

      5  C    Isotropic =    59.2116   Anisotropy =   175.8004

      6  C    Isotropic =    62.2504   Anisotropy =   170.8452

      7  C    Isotropic =    67.4061   Anisotropy =   144.3570

      8  P    Isotropic =   362.7800   Anisotropy =    38.9006

      9  C    Isotropic =    55.6899   Anisotropy =   180.0631

     10  C    Isotropic =    62.6976   Anisotropy =   173.8168

     11  C    Isotropic =    68.7569   Anisotropy =   163.7243

     12  C    Isotropic =    68.3374   Anisotropy =   167.0520

     13  C    Isotropic =    68.7806   Anisotropy =   163.9975

     14  C    Isotropic =    61.1227   Anisotropy =   164.0946

     15  C    Isotropic =    56.0088   Anisotropy =   179.7754

     16  C    Isotropic =    62.7348   Anisotropy =   174.2310

     17  C    Isotropic =    68.7500   Anisotropy =   163.6719

     18  C    Isotropic =    68.2646   Anisotropy =   167.0057

     19  C    Isotropic =    68.7722   Anisotropy =   163.9400

     20  C    Isotropic =    61.0981   Anisotropy =   164.1936

     21  H    Isotropic =    29.9100   Anisotropy =     8.0553

     22  H    Isotropic =    30.3286   Anisotropy =     7.0432

     23  H    Isotropic =    29.7243   Anisotropy =     8.4581

     24  H    Isotropic =    25.0506   Anisotropy =     6.5440

     25  H    Isotropic =    24.6599   Anisotropy =     9.0929

     26  H    Isotropic =    25.4800   Anisotropy =    12.2692

     27  H    Isotropic =    25.2554   Anisotropy =     7.7134

     28  H    Isotropic =    25.4266   Anisotropy =    12.2088

     29  H    Isotropic =    25.0662   Anisotropy =     6.0822

     30  H    Isotropic =    25.0402   Anisotropy =     3.6165

     31  H    Isotropic =    24.9450   Anisotropy =     4.5939

     32  H    Isotropic =    24.6375   Anisotropy =     9.2933

     33  H    Isotropic =    25.3653   Anisotropy =    12.1736

     34  H    Isotropic =    25.0463   Anisotropy =     6.1675

     35  H    Isotropic =    25.0281   Anisotropy =     3.6582

     36  H    Isotropic =    24.9361   Anisotropy =     4.5749

     37  H    Isotropic =    24.6257   Anisotropy =     9.3012

  Exact polarizability: 250.583  -0.019 231.661  -0.850  -1.241 174.555
 Approx polarizability: 353.312  -0.287 342.773  -0.881  -1.333 323.233

                      1                      2                      3
                      A                      A                      A
 Frequencies --     15.0409                22.5583                24.1760
 Red. masses --      1.0582                 3.7572                 3.3957
 Frc consts  --      0.0001                 0.0011                 0.0012
 IR Inten    --      0.2024                 0.2640                 0.3206

                      4                      5                      6
                      A                      A                      A
 Frequencies --     39.3756                42.8838                52.0956
 Red. masses --      3.6460                 4.5464                 5.1356
 Frc consts  --      0.0033                 0.0049                 0.0082
 IR Inten    --      0.0064                 0.1462                 0.0753

                      7                      8                      9
                      A                      A                      A
 Frequencies --     64.1655               138.7850               178.1686
 Red. masses --      4.9520                 4.2074                 4.4981
 Frc consts  --      0.0120                 0.0477                 0.0841
 IR Inten    --      0.3011                 0.5804                 0.4539

                     10                     11                     12
                      A                      A                      A
 Frequencies --    199.5868               231.1588               237.2464
 Red. masses --      4.6429                 5.2540                 4.4538
 Frc consts  --      0.1090                 0.1654                 0.1477
 IR Inten    --      1.0485                 0.4769                 0.4430

                     13                     14                     15
                      A                      A                      A
 Frequencies --    255.5953               307.3780               355.9482
 Red. masses --      4.8935                 4.5440                 2.9321
 Frc consts  --      0.1884                 0.2529                 0.2189
 IR Inten    --      0.2001                 0.6600                 0.6703

                     16                     17                     18
                      A                      A                      A
 Frequencies --    406.7874               409.2475               413.7311
 Red. masses --      4.2323                 3.0385                 3.2875
 Frc consts  --      0.4126                 0.2998                 0.3315
 IR Inten    --      6.9935                 1.5497                 0.7467

                     19                     20                     21
                      A                      A                      A
 Frequencies --    417.8110               424.4768               439.9757
 Red. masses --      3.8261                 5.7062                 7.4734
 Frc consts  --      0.3935                 0.6058                 0.8524
 IR Inten    --      2.4104                 1.6574                 8.3952

                     22                     23                     24
                      A                      A                      A
 Frequencies --    506.3413               514.8898               523.4675
 Red. masses --      4.0142                 4.3395                 3.1987
 Frc consts  --      0.6064                 0.6778                 0.5164
 IR Inten    --     20.5861                18.4310                22.5080

                     25                     26                     27
                      A                      A                      A
 Frequencies --    622.0134               632.9152               634.3328
 Red. masses --      5.6098                 6.4283                 6.3772
 Frc consts  --      1.2788                 1.5172                 1.5119
 IR Inten    --      9.7608                 0.1519                 1.8008

                     28                     29                     30
                      A                      A                      A
 Frequencies --    654.1723               697.2716               705.1647
 Red. masses --      6.9640                 6.6232                 5.9104
 Frc consts  --      1.7559                 1.8972                 1.7316
 IR Inten    --      0.0450                 1.1178                 1.8990

                     31                     32                     33
                      A                      A                      A
 Frequencies --    711.8641               712.9506               727.6498
 Red. masses --      2.1538                 2.1319                 3.8421
 Frc consts  --      0.6431                 0.6385                 1.1986
 IR Inten    --     24.6675                20.6613                 2.4934

                     34                     35                     36
                      A                      A                      A
 Frequencies --    761.8489               762.4800               814.1466
 Red. masses --      1.6348                 1.6389                 4.8489
 Frc consts  --      0.5591                 0.5614                 1.8937
 IR Inten    --     21.4879                24.7410                 0.4191

                     37                     38                     39
                      A                      A                      A
 Frequencies --    826.3024               862.8004               866.1651
 Red. masses --      1.3691                 1.2486                 1.2477
 Frc consts  --      0.5507                 0.5476                 0.5515
 IR Inten    --     22.0581                 0.3045                 0.2446

                     40                     41                     42
                      A                      A                      A
 Frequencies --    868.1689               932.5664               933.4872
 Red. masses --      1.2465                 1.3447                 1.3415
 Frc consts  --      0.5535                 0.6890                 0.6888
 IR Inten    --      0.0972                 1.2419                 0.4942

                     43                     44                     45
                      A                      A                      A
 Frequencies --    971.7877               973.1905               975.7219
 Red. masses --      1.2859                 1.3299                 1.3606
 Frc consts  --      0.7155                 0.7421                 0.7632
 IR Inten    --      0.0889                 0.0245                 0.0209

                     46                     47                     48
                      A                      A                      A
 Frequencies --    977.3903               999.9507              1000.4845
 Red. masses --      1.3477                 1.2532                 1.2522
 Frc consts  --      0.7585                 0.7383                 0.7385
 IR Inten    --      0.1159                 0.0930                 0.0281

                     49                     50                     51
                      A                      A                      A
 Frequencies --   1015.3444              1015.5785              1017.9623
 Red. masses --      6.2417                 6.2430                 1.4495
 Frc consts  --      3.7913                 3.7937                 0.8850
 IR Inten    --      4.2778                 1.8233                 1.3689

                     52                     53                     54
                      A                      A                      A
 Frequencies --   1037.8786              1052.7465              1052.9127
 Red. masses --      3.5779                 3.3147                 3.2749
 Frc consts  --      2.2707                 2.1644                 2.1391
 IR Inten    --      4.8778                 2.1755                 0.8114

                     55                     56                     57
                      A                      A                      A
 Frequencies --   1075.2508              1107.9968              1108.7883
 Red. masses --      1.5295                 1.8766                 1.9872
 Frc consts  --      1.0419                 1.3574                 1.4394
 IR Inten    --      8.7015                 3.7680                 6.6105

                     58                     59                     60
                      A                      A                      A
 Frequencies --   1110.1078              1110.7046              1116.0693
 Red. masses --      2.4202                 2.2361                 2.8504
 Frc consts  --      1.7573                 1.6253                 2.0919
 IR Inten    --     10.7335                 9.4496                 1.0870

                     61                     62                     63
                      A                      A                      A
 Frequencies --   1150.4059              1193.4942              1193.7636
 Red. masses --      1.3592                 1.1021                 1.0999
 Frc consts  --      1.0598                 0.9249                 0.9235
 IR Inten    --      1.7673                 0.0471                 0.1317

                     64                     65                     66
                      A                      A                      A
 Frequencies --   1219.2794              1220.3624              1226.1669
 Red. masses --      1.1477                 1.1476                 1.1422
 Frc consts  --      1.0052                 1.0070                 1.0118
 IR Inten    --      6.0053                 3.9096                 7.5713

                     67                     68                     69
                      A                      A                      A
 Frequencies --   1241.4744              1324.5823              1328.0956
 Red. masses --      2.9392                 3.8570                 3.9196
 Frc consts  --      2.6690                 3.9872                 4.0733
 IR Inten    --      1.5055                 3.3222                 3.4110

                     70                     71                     72
                      A                      A                      A
 Frequencies --   1328.7861              1352.9001              1365.2212
 Red. masses --      3.4984                 1.5133                 1.6562
 Frc consts  --      3.6394                 1.6320                 1.8187
 IR Inten    --      2.5470                 0.2958                 0.3246

                     73                     74                     75
                      A                      A                      A
 Frequencies --   1365.6344              1441.7641              1442.6940
 Red. masses --      1.6411                 2.1667                 1.3437
 Frc consts  --      1.8033                 2.6536                 1.6478
 IR Inten    --      1.8457                 5.1225                 1.1917

                     76                     77                     78
                      A                      A                      A
 Frequencies --   1480.5802              1480.9616              1516.5103
 Red. masses --      2.1129                 2.1166                 1.0521
 Frc consts  --      2.7290                 2.7351                 1.4256
 IR Inten    --     12.9281                 6.9259                 5.5837

                     79                     80                     81
                      A                      A                      A
 Frequencies --   1520.8045              1531.2916              1531.6032
 Red. masses --      1.0957                 2.0062                 1.9984
 Frc consts  --      1.4931                 2.7716                 2.7620
 IR Inten    --      8.8662                 5.0516                10.3717

                     82                     83                     84
                      A                      A                      A
 Frequencies --   1547.1817              1614.0150              1630.2302
 Red. masses --      2.2384                 5.1566                 5.1037
 Frc consts  --      3.1569                 7.9146                 7.9917
 IR Inten    --     13.6410                 0.3711                 0.2825

                     85                     86                     87
                      A                      A                      A
 Frequencies --   1630.4496              1646.1770              1647.3450
 Red. masses --      5.1156                 5.2716                 5.2789
 Frc consts  --      8.0124                 8.4168                 8.4403
 IR Inten    --      0.1339                 3.7861                 1.4453

                     88                     89                     90
                      A                      A                      A
 Frequencies --   1659.5976              3040.9094              3095.9626
 Red. masses --      5.5342                 1.0399                 1.0970
 Frc consts  --      8.9807                 5.6658                 6.1953
 IR Inten    --      5.9711                36.7211                20.7194

                     91                     92                     93
                      A                      A                      A
 Frequencies --   3125.1247              3170.6785              3174.9515
 Red. masses --      1.1019                 1.0868                 1.0885
 Frc consts  --      6.3408                 6.4373                 6.4650
 IR Inten    --     15.6911                11.8179                19.1079

                     94                     95                     96
                      A                      A                      A
 Frequencies --   3175.6266              3175.6731              3182.1183
 Red. masses --      1.0853                 1.0853                 1.0875
 Frc consts  --      6.4486                 6.4487                 6.4881
 IR Inten    --      2.2389                 2.4472                 0.6942

                     97                     98                     99
                      A                      A                      A
 Frequencies --   3182.2371              3188.4640              3192.4140
 Red. masses --      1.0875                 1.0941                 1.0917
 Frc consts  --      6.4888                 6.5532                 6.5550
 IR Inten    --      0.5060                22.1891                11.0782

                    100                    101                    102
                      A                      A                      A
 Frequencies --   3192.5001              3203.6016              3203.8405
 Red. masses --      1.0917                 1.0942                 1.0942
 Frc consts  --      6.5558                 6.6163                 6.6174
 IR Inten    --     35.5997                42.1118                17.3554

                    103                    104                    105
                      A                      A                      A
 Frequencies --   3205.7242              3209.7992              3210.4367
 Red. masses --      1.0921                 1.0955                 1.0955
 Frc consts  --      6.6123                 6.6502                 6.6525
 IR Inten    --      6.4019                19.2651                18.2159

 - Thermochemistry -
 -------------------
 Temperature   298.150 Kelvin.  Pressure   1.00000 Atm.
 Atom     1 has atomic number  6 and mass  12.00000

 Molecular mass:   276.10679 amu.
 Principal axes and moments of inertia in atomic units:
                           1         2         3
     Eigenvalues --  5221.213986873.33469**********
           X            0.99999  -0.00090   0.00304
           Y            0.00090   1.00000  -0.00016
           Z           -0.00304   0.00017   1.00000
 This molecule is an asymmetric top.
 Rotational symmetry number  1.
 Warning -- assumption of classical behavior for rotation
           may cause significant error
 Rotational temperatures (Kelvin)      0.01659     0.01260     0.00839
 Rotational constants (GHZ):           0.34566     0.26257     0.17479
 Zero-point vibrational energy     792098.3 (Joules/Mol)
                                  189.31603 (Kcal/Mol)
 Warning -- explicit consideration of  24 degrees of freedom as
           vibrations may cause significant error
 Vibrational temperatures:     21.64    32.46    34.78    56.65    61.70
          (Kelvin)             74.95    92.32   199.68   256.34   287.16
                              332.59   341.34   367.74   442.25   512.13
                              585.28   588.82   595.27   601.14   610.73
                              633.03   728.51   740.81   753.15   894.94
                              910.62   912.66   941.21  1003.22  1014.57
                             1024.21  1025.78  1046.93  1096.13  1097.04
                             1171.38  1188.86  1241.38  1246.22  1249.10
                             1341.76  1343.08  1398.19  1400.20  1403.85
                             1406.25  1438.71  1439.47  1460.85  1461.19
                             1464.62  1493.28  1514.67  1514.91  1547.05
                             1594.16  1595.30  1597.20  1598.06  1605.77
                             1655.18  1717.17  1717.56  1754.27  1755.83
                             1764.18  1786.20  1905.78  1910.83  1911.83
                             1946.52  1964.25  1964.84  2074.38  2075.71
                             2130.22  2130.77  2181.92  2188.10  2203.19
                             2203.64  2226.05  2322.21  2345.54  2345.85
                             2368.48  2370.16  2387.79  4375.19  4454.40
                             4496.36  4561.90  4568.05  4569.02  4569.09
                             4578.36  4578.53  4587.49  4593.17  4593.30
                             4609.27  4609.61  4612.32  4618.19  4619.10

 Zero-point correction=                           0.301694 (Hartree/Particle)
 Thermal correction to Energy=                    0.319562
 Thermal correction to Enthalpy=                  0.320506
 Thermal correction to Gibbs Free Energy=         0.251396
 Sum of electronic and zero-point Energies=          -1075.314831
 Sum of electronic and thermal Energies=             -1075.296963
 Sum of electronic and thermal Enthalpies=           -1075.296019
 Sum of electronic and thermal Free Energies=        -1075.365129

                     E (Thermal)             CV                S
                      KCal/Mol        Cal/Mol-Kelvin    Cal/Mol-Kelvin
 Total                  200.528             68.562            145.454
 Electronic               0.000              0.000              0.000
 Translational            0.889              2.981             42.745
 Rotational               0.889              2.981             34.271
 Vibrational            198.751             62.600             68.438
 Vibration     1          0.593              1.986              7.200
 Vibration     2          0.593              1.985              6.395
 Vibration     3          0.593              1.985              6.258
 Vibration     4          0.594              1.981              5.290
 Vibration     5          0.595              1.980              5.121
 Vibration     6          0.596              1.977              4.736
 Vibration     7          0.597              1.971              4.325
 Vibration     8          0.614              1.915              2.821
 Vibration     9          0.629              1.869              2.348
 Vibration    10          0.638              1.840              2.137
 Vibration    11          0.653              1.793              1.870
 Vibration    12          0.656              1.784              1.823
 Vibration    13          0.666              1.753              1.692
 Vibration    14          0.697              1.660              1.376
 Vibration    15          0.731              1.563              1.140
 Vibration    16          0.772              1.455              0.938
 Vibration    17          0.774              1.450              0.929
 Vibration    18          0.777              1.440              0.914
 Vibration    19          0.781              1.432              0.899
 Vibration    20          0.786              1.417              0.877
 Vibration    21          0.800              1.383              0.827
 Vibration    22          0.862              1.236              0.642
 Vibration    23          0.870              1.217              0.622
 Vibration    24          0.878              1.198              0.602

 Optimization completed on the basis of negligible forces.
    -- Stationary point found.
 Normal termination of Gaussian 16 at Sat Aug 22 23:23:23 2020.
 Gaussian 16:  ES64L-G16RevA.03 25-Dec-2016

 ----------------------------------------------------------------------
 # TD(NStates=10, Root=1) B3LYP/6-31G* scf=qc volume pop=NPA density=cu
 rrent Geom=AllCheck Guess=Read
 ----------------------------------------------------------------------

 Structure from the checkpoint file:  "phosphine_10_conf303.chk"
 -------------------
 Title Card Required
 -------------------
 Charge =  0 Multiplicity = 1

                         Standard orientation:
 ---------------------------------------------------------------------
 Center     Atomic      Atomic             Coordinates (Angstroms)
 Number     Number       Type             X           Y           Z
 ---------------------------------------------------------------------
      1          6           0       -5.446913    0.034944   -0.766742
      2          6           0       -4.011655   -0.000475   -0.296595
      3          6           0       -3.616080    0.689738    0.858108
      4          6           0       -2.292053    0.668468    1.289158
      5          6           0       -1.307360   -0.031734    0.571439
      6          6           0       -1.702681   -0.726992   -0.579933
      7          6           0       -3.033534   -0.711451   -1.001551
      8         15           0        0.414994   -0.000761    1.251336
      9          6           0        1.214677   -1.432199    0.384942
     10          6           0        1.919080   -1.339547   -0.825107
     11          6           0        2.510302   -2.470621   -1.392565
     12          6           0        2.403399   -3.711608   -0.762990
     13          6           0        1.707440   -3.816876    0.443219
     14          6           0        1.127126   -2.685111    1.015291
     15          6           0        1.168078    1.460318    0.392864
     16          6           0        0.613090    2.101343   -0.725143
     17          6           0        1.239250    3.214365   -1.290711
     18          6           0        2.430861    3.701376   -0.751380
     19          6           0        2.992152    3.074338    0.363116
     20          6           0        2.360422    1.970017    0.934477
     21          1           0       -6.146124   -0.081747    0.069168
     22          1           0       -5.651195   -0.759657   -1.491469
     23          1           0       -5.683111    0.991369   -1.252063
     24          1           0       -4.357606    1.240328    1.433511
     25          1           0       -2.018416    1.196055    2.200206
     26          1           0       -0.970727   -1.292146   -1.149364
     27          1           0       -3.315767   -1.264074   -1.895371
     28          1           0        2.010085   -0.379800   -1.324786
     29          1           0        3.054556   -2.380354   -2.329396
     30          1           0        2.865060   -4.590358   -1.205699
     31          1           0        1.625674   -4.778095    0.944177
     32          1           0        0.603352   -2.771702    1.964666
     33          1           0       -0.313903    1.732338   -1.153653
     34          1           0        0.794202    3.700506   -2.155369
     35          1           0        2.916003    4.568268   -1.192364
     36          1           0        3.915991    3.451580    0.794145
     37          1           0        2.793430    1.499153    1.814237
 ---------------------------------------------------------------------

 SCF Done:  E(RB3LYP) =  -1075.61652508     a.u. after    1 cycles

 Excitation energies and oscillator strengths:

 Excited State   1:      Singlet-A      4.4828 eV  276.57 nm  f=0.1258  <S**2>=0.000
      73 -> 74         0.69050
 This state for optimization and/or second-order correction.
 Total Energy, E(TD-HF/TD-DFT) =  -1075.45178342
 Copying the excited state density for this state as the 1-particle RhoCI density.

 Excited State   2:      Singlet-A      4.5045 eV  275.25 nm  f=0.1549  <S**2>=0.000
      73 -> 75         0.68976

 Excited State   3:      Singlet-A      4.7349 eV  261.85 nm  f=0.0040  <S**2>=0.000
      73 -> 76         0.67519

 Excited State   4:      Singlet-A      5.0211 eV  246.93 nm  f=0.0004  <S**2>=0.000
      69 -> 74         0.11774
      69 -> 75         0.11814
      71 -> 75         0.14448
      73 -> 77        -0.27201
      73 -> 78         0.42970
      73 -> 79         0.37637

 Excited State   5:      Singlet-A      5.0389 eV  246.06 nm  f=0.0004  <S**2>=0.000
      69 -> 74         0.12898
      70 -> 75        -0.12126
      71 -> 74        -0.12769
      73 -> 77         0.11564
      73 -> 78         0.45761
      73 -> 79        -0.43016

 Excited State   6:      Singlet-A      5.1320 eV  241.59 nm  f=0.0088  <S**2>=0.000
      72 -> 75         0.10185
      73 -> 77         0.60943
      73 -> 78         0.11672
      73 -> 79         0.26773

 Excited State   7:      Singlet-A      5.3922 eV  229.93 nm  f=0.0108  <S**2>=0.000
      67 -> 76        -0.14117
      68 -> 78        -0.10283
      71 -> 74         0.26555
      71 -> 75         0.28969
      72 -> 74         0.39837
      72 -> 75        -0.24295
      72 -> 78         0.10308
      72 -> 79         0.11545
      73 -> 76        -0.15022

 Excited State   8:      Singlet-A      5.4756 eV  226.43 nm  f=0.0011  <S**2>=0.000
      68 -> 75        -0.11787
      68 -> 78         0.11619
      69 -> 74         0.17690
      69 -> 75         0.16866
      70 -> 74        -0.19556
      70 -> 76        -0.17958
      71 -> 75         0.19792
      71 -> 77        -0.10667
      72 -> 74        -0.20669
      72 -> 76         0.30980
      72 -> 79         0.14047
      73 -> 78        -0.18377
      73 -> 79        -0.20697

 Excited State   9:      Singlet-A      5.5079 eV  225.10 nm  f=0.0004  <S**2>=0.000
      67 -> 78         0.12320
      67 -> 79        -0.10406
      68 -> 74        -0.12110
      68 -> 76         0.28953
      68 -> 79        -0.11382
      69 -> 74        -0.19224
      69 -> 75         0.11278
      70 -> 75         0.24697
      71 -> 74         0.24626
      71 -> 76         0.15901
      72 -> 75         0.19626
      72 -> 78         0.12207
      73 -> 78         0.20025
      73 -> 79        -0.18578

 Excited State  10:      Singlet-A      5.5921 eV  221.71 nm  f=0.0274  <S**2>=0.000
      67 -> 76         0.11351
      68 -> 74         0.10701
      68 -> 78         0.10153
      69 -> 75         0.11446
      70 -> 74        -0.26823
      70 -> 75         0.27289
      71 -> 74        -0.29420
      72 -> 74         0.39245

 The electronic state is 1-A.
 Alpha  occ. eigenvalues --  -77.07945 -10.19771 -10.19314 -10.19304 -10.19069
 Alpha  occ. eigenvalues --  -10.19041 -10.19025 -10.19001 -10.18987 -10.18924
 Alpha  occ. eigenvalues --  -10.18911 -10.18906 -10.18902 -10.18889 -10.18840
 Alpha  occ. eigenvalues --  -10.18832 -10.18765 -10.18564 -10.18547 -10.18475
 Alpha  occ. eigenvalues --   -6.54672  -4.70933  -4.70930  -4.70430  -0.85537
 Alpha  occ. eigenvalues --   -0.84932  -0.84725  -0.77631  -0.75297  -0.74226
 Alpha  occ. eigenvalues --   -0.74185  -0.74071  -0.73692  -0.68846  -0.63430
 Alpha  occ. eigenvalues --   -0.60388  -0.60195  -0.60056  -0.59113  -0.58030
 Alpha  occ. eigenvalues --   -0.55276  -0.51322  -0.50558  -0.47949  -0.45989
 Alpha  occ. eigenvalues --   -0.45192  -0.45025  -0.44442  -0.44215  -0.43866
 Alpha  occ. eigenvalues --   -0.41977  -0.41781  -0.41714  -0.41515  -0.40307
 Alpha  occ. eigenvalues --   -0.39437  -0.38506  -0.36529  -0.36182  -0.35810
 Alpha  occ. eigenvalues --   -0.35187  -0.34113  -0.34091  -0.33601  -0.31726
 Alpha  occ. eigenvalues --   -0.31686  -0.26498  -0.25315  -0.25096  -0.24911
 Alpha  occ. eigenvalues --   -0.24542  -0.24340  -0.20883
 Alpha virt. eigenvalues --   -0.01757  -0.01676  -0.00679   0.00286   0.00541
 Alpha virt. eigenvalues --    0.00593   0.06947   0.07104   0.09696   0.10949
 Alpha virt. eigenvalues --    0.11219   0.12873   0.13552   0.13900   0.14597

 Mulliken charges:
               1
     1  C   -0.531668
     2  C    0.176684
     3  C   -0.169541
     4  C   -0.151885
     5  C   -0.082586
     6  C   -0.154712
     7  C   -0.167375
     8  P    0.441984
     9  C   -0.106219
    10  C   -0.154492
    11  C   -0.122949
    12  C   -0.138852
    13  C   -0.117146
    14  C   -0.170148
    15  C   -0.130644
    16  C   -0.174582
    17  C   -0.119048
    18  C   -0.170452
    19  C   -0.123152
    20  C   -0.170775
    21  H    0.165263
    22  H    0.161642
    23  H    0.174816
    24  H    0.132417
    25  H    0.147034
    26  H    0.159890
    27  H    0.135564
    28  H    0.168014
    29  H    0.135791
    30  H    0.131359
    31  H    0.130467
    32  H    0.132224
    33  H    0.119724
    34  H    0.113857
    35  H    0.104960
    36  H    0.111708
    37  H    0.112825
 Sum of Mulliken charges =  -0.00000

 Dipole moment (field-independent basis, Debye):
    X=             -3.4383    Y=             -2.7137    Z=              0.2009  Tot=              4.3848
 Quadrupole moment (field-independent basis, Debye-Ang):
   XX=           -112.8767   YY=           -125.7068   ZZ=           -117.3306
   XY=             -6.0782   XZ=              0.6197   YZ=              1.2658

 Summary of Natural Population Analysis:

                                       Natural Population
                Natural  -----------------------------------------------
    Atom  No    Charge         Core      Valence    Rydberg      Total
 -----------------------------------------------------------------------
      C    1   -0.69284      1.99939     4.68601    0.00744     6.69284
      C    2   -0.00262      1.99903     3.98937    0.01422     6.00262
      C    3   -0.24050      1.99902     4.22779    0.01368     6.24050
      C    4   -0.19018      1.99902     4.17583    0.01533     6.19018
      C    5   -0.38425      1.99889     4.36139    0.02398     6.38425
      C    6   -0.21899      1.99899     4.20312    0.01688     6.21899
      C    7   -0.22138      1.99902     4.20938    0.01299     6.22138
      P    8    1.22813      9.99753     3.72395    0.05039    13.77187
      C    9   -0.42637      1.99890     4.40120    0.02627     6.42637
      C   10   -0.21451      1.99899     4.19875    0.01677     6.21451
      C   11   -0.23582      1.99909     4.22234    0.01439     6.23582
      C   12   -0.23477      1.99909     4.22077    0.01491     6.23477
      C   13   -0.23322      1.99910     4.21982    0.01431     6.23322
      C   14   -0.22495      1.99902     4.21020    0.01573     6.22495
      C   15   -0.48359      1.99886     4.45944    0.02529     6.48359
      C   16   -0.26282      1.99899     4.24594    0.01789     6.26282
      C   17   -0.23126      1.99909     4.21756    0.01461     6.23126
      C   18   -0.30163      1.99910     4.28576    0.01678     6.30163
      C   19   -0.24523      1.99910     4.23108    0.01505     6.24523
      C   20   -0.23371      1.99901     4.21833    0.01637     6.23371
      H   21    0.24440      0.00000     0.75454    0.00106     0.75560
      H   22    0.24092      0.00000     0.75826    0.00082     0.75908
      H   23    0.25068      0.00000     0.74828    0.00104     0.74932
      H   24    0.23853      0.00000     0.76041    0.00106     0.76147
      H   25    0.24254      0.00000     0.75623    0.00122     0.75746
      H   26    0.25351      0.00000     0.74526    0.00123     0.74649
      H   27    0.24014      0.00000     0.75880    0.00105     0.75986
      H   28    0.25676      0.00000     0.74182    0.00142     0.74324
      H   29    0.24046      0.00000     0.75864    0.00089     0.75954
      H   30    0.23561      0.00000     0.76350    0.00089     0.76439
      H   31    0.23694      0.00000     0.76210    0.00096     0.76306
      H   32    0.23273      0.00000     0.76619    0.00108     0.76727
      H   33    0.23008      0.00000     0.76842    0.00150     0.76992
      H   34    0.23027      0.00000     0.76885    0.00088     0.76973
      H   35    0.22428      0.00000     0.77483    0.00089     0.77572
      H   36    0.22877      0.00000     0.77032    0.00090     0.77123
      H   37    0.22387      0.00000     0.77510    0.00103     0.77613
 =======================================================================
   * Total *    0.00000     47.97922    97.63958    0.38120   146.00000

 Normal termination of Gaussian 16 at Sat Aug 22 23:38:47 2020.
