 Gaussian 16, Revision A.03,

 ---------------------------------
 # opt=CalcAll B3LYP/6-31G* scf=qc
 ---------------------------------

 -------------------
 Title Card Required
 -------------------
 Symbolic Z-matrix:
 Charge =  0 Multiplicity = 1

 SCF Done:  E(RB3LYP) =  -1333.98815408     a.u. after    7 cycles
 SCF Done:  E(RB3LYP) =  -1333.99458869     a.u. after   15 cycles
 SCF Done:  E(RB3LYP) =  -1333.99733450     a.u. after   17 cycles
 SCF Done:  E(RB3LYP) =  -1333.99858749     a.u. after   17 cycles
 SCF Done:  E(RB3LYP) =  -1333.99891636     a.u. after   17 cycles
 SCF Done:  E(RB3LYP) =  -1333.99897718     a.u. after    9 cycles
 SCF Done:  E(RB3LYP) =  -1333.99897399     a.u. after    5 cycles
 SCF Done:  E(RB3LYP) =  -1333.99897369     a.u. after    2 cycles
 SCF Done:  E(RB3LYP) =  -1333.99894851     a.u. after    9 cycles
 SCF Done:  E(RB3LYP) =  -1333.99897416     a.u. after    7 cycles
 SCF Done:  E(RB3LYP) =  -1333.99898224     a.u. after    5 cycles
 SCF Done:  E(RB3LYP) =  -1333.99897388     a.u. after    2 cycles
 SCF Done:  E(RB3LYP) =  -1333.99898034     a.u. after    2 cycles
 SCF Done:  E(RB3LYP) =  -1333.99897504     a.u. after    2 cycles
 SCF Done:  E(RB3LYP) =  -1333.99897667     a.u. after    3 cycles
 SCF Done:  E(RB3LYP) =  -1333.99897751     a.u. after    4 cycles
 SCF Done:  E(RB3LYP) =  -1333.99897735     a.u. after    2 cycles
 SCF Done:  E(RB3LYP) =  -1333.99897750     a.u. after    2 cycles
 Optimization completed.
    -- Stationary point found.
 Normal termination of Gaussian 16 at Sun Aug 23 14:53:46 2020.

 ----------------------------------------------------------------------
 # freq B3LYP/6-31G* scf=qc volume NMR pop=NPA density=current Geom=All
 Check Guess=Read
 ----------------------------------------------------------------------

 Structure from the checkpoint file:  "phosphine_5_conf142.chk"
 -------------------
 Title Card Required
 -------------------
 Charge =  0 Multiplicity = 1

 SCF Done:  E(RB3LYP) =  -1333.99897750     a.u. after    1 cycles

      1  C    Isotropic =    79.9232   Anisotropy =   137.4272

      2  C    Isotropic =    59.0445   Anisotropy =   162.8264

      3  C    Isotropic =    61.5454   Anisotropy =   173.4650

      4  C    Isotropic =    60.7293   Anisotropy =   171.7542

      5  C    Isotropic =    80.0604   Anisotropy =   136.7100

      6  C    Isotropic =    32.6707   Anisotropy =    98.8187

      7  F    Isotropic =   295.8276   Anisotropy =   113.0667

      8  P    Isotropic =   366.0177   Anisotropy =    39.5185

      9  C    Isotropic =    61.6263   Anisotropy =   173.4676

     10  C    Isotropic =    60.6713   Anisotropy =   171.9230

     11  C    Isotropic =    80.0585   Anisotropy =   136.7401

     12  C    Isotropic =    32.6608   Anisotropy =    98.8407

     13  C    Isotropic =    79.9428   Anisotropy =   137.4219

     14  C    Isotropic =    59.0041   Anisotropy =   162.7698

     15  F    Isotropic =   295.7641   Anisotropy =   113.0626

     16  C    Isotropic =    61.6234   Anisotropy =   173.4122

     17  C    Isotropic =    59.0881   Anisotropy =   162.8856

     18  C    Isotropic =    79.9458   Anisotropy =   137.4289

     19  C    Isotropic =    32.6770   Anisotropy =    98.8042

     20  C    Isotropic =    80.0672   Anisotropy =   136.7226

     21  C    Isotropic =    60.7306   Anisotropy =   171.8157

     22  F    Isotropic =   295.8357   Anisotropy =   112.9869

     23  H    Isotropic =    25.3572   Anisotropy =     4.2626

     24  H    Isotropic =    24.6205   Anisotropy =     8.9319

     25  H    Isotropic =    25.3715   Anisotropy =    12.0198

     26  H    Isotropic =    25.4676   Anisotropy =     5.7328

     27  H    Isotropic =    25.3626   Anisotropy =    12.0126

     28  H    Isotropic =    25.4630   Anisotropy =     5.7381

     29  H    Isotropic =    25.3586   Anisotropy =     4.2524

     30  H    Isotropic =    24.6179   Anisotropy =     8.9091

     31  H    Isotropic =    24.6246   Anisotropy =     8.9307

     32  H    Isotropic =    25.3570   Anisotropy =     4.2599

     33  H    Isotropic =    25.4688   Anisotropy =     5.7417

     34  H    Isotropic =    25.3761   Anisotropy =    12.0559

  Exact polarizability: 226.187  -0.040 226.427   0.140   0.069 167.479
 Approx polarizability: 337.791  -0.090 338.390   0.314   0.145 314.332

                      1                      2                      3
                      A                      A                      A
 Frequencies --     24.5844                24.8050                37.4035
 Red. masses --      4.1047                 4.0857                 9.0223
 Frc consts  --      0.0015                 0.0015                 0.0074
 IR Inten    --      0.2430                 0.2551                 0.1004

                      4                      5                      6
                      A                      A                      A
 Frequencies --     37.6421                40.5521                50.4466
 Red. masses --      8.7520                 3.7478                 9.9524
 Frc consts  --      0.0073                 0.0036                 0.0149
 IR Inten    --      0.1027                 0.0057                 0.1132

                      7                      8                      9
                      A                      A                      A
 Frequencies --    133.2228               145.4409               145.7077
 Red. masses --      8.0508                 8.3737                 8.3724
 Frc consts  --      0.0842                 0.1044                 0.1047
 IR Inten    --      0.0221                 0.5179                 0.5162

                     10                     11                     12
                      A                      A                      A
 Frequencies --    208.8888               218.9044               219.4417
 Red. masses --      8.0442                 6.9863                 6.9940
 Frc consts  --      0.2068                 0.1972                 0.1984
 IR Inten    --      0.2918                 0.5322                 0.5262

                     13                     14                     15
                      A                      A                      A
 Frequencies --    307.8347               336.0218               336.1381
 Red. masses --      8.4413                 8.3004                 8.3076
 Frc consts  --      0.4713                 0.5522                 0.5530
 IR Inten    --      1.0326                 0.0410                 0.0439

                     16                     17                     18
                      A                      A                      A
 Frequencies --    397.2348               404.0382               404.1436
 Red. masses --      7.7246                 8.0320                 8.0122
 Frc consts  --      0.7182                 0.7725                 0.7710
 IR Inten    --      0.3019                 9.9856                10.0744

                     19                     20                     21
                      A                      A                      A
 Frequencies --    420.6688               420.7393               424.6938
 Red. masses --      3.2812                 3.2767                 3.1348
 Frc consts  --      0.3421                 0.3418                 0.3331
 IR Inten    --      1.1427                 1.0949                 0.0253

                     22                     23                     24
                      A                      A                      A
 Frequencies --    435.0690               435.2155               463.4082
 Red. masses --      6.1539                 6.1576                 6.6413
 Frc consts  --      0.6863                 0.6872                 0.8403
 IR Inten    --     18.9936                19.0802                 7.3575

                     25                     26                     27
                      A                      A                      A
 Frequencies --    533.0821               533.1335               535.6625
 Red. masses --      2.8115                 2.8105                 2.9066
 Frc consts  --      0.4707                 0.4707                 0.4914
 IR Inten    --     21.6674                21.8663                13.5820

                     28                     29                     30
                      A                      A                      A
 Frequencies --    608.0191               629.9696               630.0273
 Red. masses --      7.9075                 7.8286                 7.8313
 Frc consts  --      1.7223                 1.8305                 1.8315
 IR Inten    --      0.0091                 0.0403                 0.0374

                     31                     32                     33
                      A                      A                      A
 Frequencies --    648.1868               648.3771               648.4135
 Red. masses --      7.2763                 7.3782                 7.3803
 Frc consts  --      1.8012                 1.8275                 1.8282
 IR Inten    --      0.0051                 0.1240                 0.1270

                     34                     35                     36
                      A                      A                      A
 Frequencies --    715.2104               715.7060               715.7390
 Red. masses --      4.8116                 4.8289                 4.8298
 Frc consts  --      1.4501                 1.4574                 1.4578
 IR Inten    --      1.0715                 3.9180                 3.9374

                     37                     38                     39
                      A                      A                      A
 Frequencies --    835.6819               835.7785               836.7878
 Red. masses --      1.2620                 1.2630                 1.3296
 Frc consts  --      0.5193                 0.5198                 0.5485
 IR Inten    --      0.4470                 0.5812                11.5348

                     40                     41                     42
                      A                      A                      A
 Frequencies --    839.5203               839.5873               839.7919
 Red. masses --      3.2065                 3.2794                 4.0132
 Frc consts  --      1.3315                 1.3620                 1.6676
 IR Inten    --     62.1333                61.0094                18.8243

                     43                     44                     45
                      A                      A                      A
 Frequencies --    843.5970               843.6954               844.0644
 Red. masses --      1.9942                 2.0036                 1.6721
 Frc consts  --      0.8361                 0.8403                 0.7019
 IR Inten    --      9.6754                 9.9458                12.4822

                     46                     47                     48
                      A                      A                      A
 Frequencies --    958.5385               958.6937               959.8045
 Red. masses --      1.2560                 1.2561                 1.2588
 Frc consts  --      0.6799                 0.6802                 0.6832
 IR Inten    --      0.1645                 0.1607                 0.3299

                     49                     50                     51
                      A                      A                      A
 Frequencies --    969.8235               969.9841               973.3891
 Red. masses --      1.3355                 1.3351                 1.3196
 Frc consts  --      0.7401                 0.7401                 0.7366
 IR Inten    --      0.0312                 0.0355                 0.3066

                     52                     53                     54
                      A                      A                      A
 Frequencies --   1034.7406              1034.7771              1035.1981
 Red. masses --      3.0285                 3.0316                 3.0232
 Frc consts  --      1.9105                 1.9125                 1.9088
 IR Inten    --      7.9665                 7.9415                 0.0908

                     55                     56                     57
                      A                      A                      A
 Frequencies --   1102.8802              1103.0955              1108.6609
 Red. masses --      3.6663                 3.6710                 3.5561
 Frc consts  --      2.6274                 2.6318                 2.5753
 IR Inten    --     19.2643                19.1355                 1.8824

                     58                     59                     60
                      A                      A                      A
 Frequencies --   1127.5843              1127.7548              1127.9332
 Red. masses --      1.3306                 1.3301                 1.3298
 Frc consts  --      0.9968                 0.9967                 0.9968
 IR Inten    --      1.0854                 2.6770                 5.2018

                     61                     62                     63
                      A                      A                      A
 Frequencies --   1195.3026              1195.6237              1199.4606
 Red. masses --      1.1837                 1.1852                 1.1799
 Frc consts  --      0.9965                 0.9982                 1.0002
 IR Inten    --     60.5927                61.1451                 2.5209

                     64                     65                     66
                      A                      A                      A
 Frequencies --   1285.3608              1285.4830              1286.1857
 Red. masses --      3.7537                 3.7451                 3.7871
 Frc consts  --      3.6539                 3.6462                 3.6912
 IR Inten    --    167.2421               166.5943                38.8686

                     67                     68                     69
                      A                      A                      A
 Frequencies --   1324.1830              1327.4546              1327.7777
 Red. masses --      2.7489                 2.2393                 2.3321
 Frc consts  --      2.8400                 2.3248                 2.4225
 IR Inten    --      8.7886                 3.8286                 3.8994

                     70                     71                     72
                      A                      A                      A
 Frequencies --   1336.7589              1336.9098              1337.1951
 Red. masses --      2.3103                 2.1668                 1.9778
 Frc consts  --      2.4324                 2.2818                 2.0837
 IR Inten    --      0.3289                 0.4675                 0.7686

                     73                     74                     75
                      A                      A                      A
 Frequencies --   1437.9456              1438.1243              1438.2500
 Red. masses --      2.9829                 2.9926                 2.9875
 Frc consts  --      3.6339                 3.6466                 3.6411
 IR Inten    --      7.4666                 2.2627                 2.3966

                     76                     77                     78
                      A                      A                      A
 Frequencies --   1545.6211              1545.7431              1546.5281
 Red. masses --      2.4076                 2.4039                 2.4441
 Frc consts  --      3.3888                 3.3841                 3.4442
 IR Inten    --    116.3832               116.6848                24.4190

                     79                     80                     81
                      A                      A                      A
 Frequencies --   1633.9643              1633.9962              1634.0498
 Red. masses --      6.9620                 6.9677                 6.9594
 Frc consts  --     10.9514                10.9608                10.9484
 IR Inten    --     12.1186                11.2759                11.4207

                     82                     83                     84
                      A                      A                      A
 Frequencies --   1653.5498              1653.5790              1654.4056
 Red. masses --      5.8076                 5.8044                 5.8773
 Frc consts  --      9.3558                 9.3509                 9.4779
 IR Inten    --     82.6536                82.5431                22.5030

                     85                     86                     87
                      A                      A                      A
 Frequencies --   3188.7511              3188.9717              3189.0698
 Red. masses --      1.0892                 1.0892                 1.0892
 Frc consts  --      6.5253                 6.5262                 6.5264
 IR Inten    --      4.9250                 4.6995                 3.7985

                     88                     89                     90
                      A                      A                      A
 Frequencies --   3205.6417              3205.7381              3206.3572
 Red. masses --      1.0878                 1.0878                 1.0879
 Frc consts  --      6.5863                 6.5867                 6.5897
 IR Inten    --      1.9903                 1.9953                 0.3822

                     91                     92                     93
                      A                      A                      A
 Frequencies --   3221.8791              3221.9154              3222.1388
 Red. masses --      1.0942                 1.0942                 1.0941
 Frc consts  --      6.6922                 6.6922                 6.6924
 IR Inten    --      3.3164                 3.2939                11.8181

                     94                     95                     96
                      A                      A                      A
 Frequencies --   3222.6161              3222.6546              3222.8681
 Red. masses --      1.0937                 1.0936                 1.0939
 Frc consts  --      6.6919                 6.6919                 6.6945
 IR Inten    --     12.1592                12.0632                 0.1738

 - Thermochemistry -
 -------------------
 Temperature   298.150 Kelvin.  Pressure   1.00000 Atm.
 Atom     1 has atomic number  6 and mass  12.00000

 Molecular mass:   316.06287 amu.
 Principal axes and moments of inertia in atomic units:
                           1         2         3
     Eigenvalues --  8314.731538320.71371**********
           X            0.99997  -0.00735   0.00004
           Y            0.00735   0.99997   0.00002
           Z           -0.00004  -0.00002   1.00000
 This molecule is an asymmetric top.
 Rotational symmetry number  1.
 Warning -- assumption of classical behavior for rotation
           may cause significant error
 Rotational temperatures (Kelvin)      0.01042     0.01041     0.00596
 Rotational constants (GHZ):           0.21705     0.21690     0.12427
 Zero-point vibrational energy     655297.5 (Joules/Mol)
                                  156.61986 (Kcal/Mol)
 Warning -- explicit consideration of  28 degrees of freedom as
           vibrations may cause significant error
 Vibrational temperatures:     35.37    35.69    53.82    54.16    58.35
          (Kelvin)             72.58   191.68   209.26   209.64   300.54
                              314.95   315.73   442.91   483.46   483.63
                              571.53   581.32   581.47   605.25   605.35
                              611.04   625.97   626.18   666.74   766.99
                              767.06   770.70   874.80   906.39   906.47
                              932.60   932.87   932.92  1029.03  1029.74
                             1029.79  1202.36  1202.50  1203.95  1207.88
                             1207.98  1208.27  1213.75  1213.89  1214.42
                             1379.12  1379.35  1380.94  1395.36  1395.59
                             1400.49  1488.76  1488.81  1489.42  1586.80
                             1587.11  1595.12  1622.34  1622.59  1622.84
                             1719.77  1720.24  1725.76  1849.35  1849.52
                             1850.53  1905.20  1909.91  1910.38  1923.30
                             1923.51  1923.93  2068.88  2069.14  2069.32
                             2223.80  2223.98  2225.11  2350.91  2350.96
                             2351.03  2379.09  2379.13  2380.32  4587.90
                             4588.22  4588.36  4612.20  4612.34  4613.23
                             4635.57  4635.62  4635.94  4636.63  4636.68
                             4636.99

 Zero-point correction=                           0.249590 (Hartree/Particle)
 Thermal correction to Energy=                    0.268017
 Thermal correction to Enthalpy=                  0.268961
 Thermal correction to Gibbs Free Energy=         0.199568
 Sum of electronic and zero-point Energies=          -1333.749388
 Sum of electronic and thermal Energies=             -1333.730961
 Sum of electronic and thermal Enthalpies=           -1333.730017
 Sum of electronic and thermal Free Energies=        -1333.799410

                     E (Thermal)             CV                S
                      KCal/Mol        Cal/Mol-Kelvin    Cal/Mol-Kelvin
 Total                  168.183             71.395            146.050
 Electronic               0.000              0.000              0.000
 Translational            0.889              2.981             43.148
 Rotational               0.889              2.981             35.262
 Vibrational            166.406             65.433             67.640
 Vibration     1          0.593              1.985              6.224
 Vibration     2          0.593              1.985              6.207
 Vibration     3          0.594              1.982              5.392
 Vibration     4          0.594              1.982              5.379
 Vibration     5          0.594              1.981              5.232
 Vibration     6          0.595              1.977              4.800
 Vibration     7          0.613              1.920              2.899
 Vibration     8          0.617              1.908              2.731
 Vibration     9          0.617              1.907              2.728
 Vibration    10          0.642              1.827              2.053
 Vibration    11          0.647              1.812              1.968
 Vibration    12          0.647              1.811              1.964
 Vibration    13          0.698              1.659              1.374
 Vibration    14          0.717              1.604              1.231
 Vibration    15          0.717              1.603              1.230
 Vibration    16          0.764              1.476              0.973
 Vibration    17          0.769              1.461              0.948
 Vibration    18          0.769              1.461              0.948
 Vibration    19          0.783              1.425              0.890
 Vibration    20          0.783              1.425              0.889
 Vibration    21          0.787              1.417              0.876
 Vibration    22          0.796              1.394              0.842
 Vibration    23          0.796              1.393              0.842
 Vibration    24          0.821              1.331              0.756
 Vibration    25          0.888              1.177              0.580
 Vibration    26          0.888              1.177              0.580
 Vibration    27          0.891              1.171              0.575
 Vibration    28          0.967              1.015              0.436

                           ! Non-Optimized Parameters !
 Normal termination of Gaussian 16 at Sun Aug 23 15:07:42 2020.
 Gaussian 16:  ES64L-G16RevA.03 25-Dec-2016

 ----------------------------------------------------------------------
 # TD(NStates=10, Root=1) B3LYP/6-31G* scf=qc volume pop=NPA density=cu
 rrent Geom=AllCheck Guess=Read
 ----------------------------------------------------------------------

 Structure from the checkpoint file:  "phosphine_5_conf143.chk"
 -------------------
 Title Card Required
 -------------------
 Charge =  0 Multiplicity = 1

                         Standard orientation:
 ---------------------------------------------------------------------
 Center     Atomic      Atomic             Coordinates (Angstroms)
 Number     Number       Type             X           Y           Z
 ---------------------------------------------------------------------
      1          6           0        3.800833   -1.411970    0.696015
      2          6           0        2.670506   -0.782139    1.213684
      3          6           0        1.423267   -0.873997    0.571380
      4          6           0        1.333085   -1.640014   -0.601731
      5          6           0        2.452115   -2.287006   -1.127913
      6          6           0        3.669575   -2.157757   -0.470221
      7          9           0        4.754800   -2.780379   -0.973834
      8         15           0        0.000189   -0.000947    1.374576
      9          6           0        0.045073    1.668208    0.571613
     10          6           0        0.747256    1.970941   -0.605845
     11          6           0        0.748955    3.263520   -1.131951
     12          6           0        0.035540    4.255514   -0.469696
     13          6           0       -0.669544    3.998510    0.700876
     14          6           0       -0.650750    2.704555    1.218363
     15          9           0        0.033144    5.506709   -0.973157
     16          6           0       -1.467902   -0.796536    0.571827
     17          6           0       -2.010026   -1.925120    1.211283
     18          6           0       -3.122093   -2.587136    0.694140
     19          6           0       -3.705544   -2.096205   -0.468628
     20          6           0       -3.210556   -0.974732   -1.123478
     21          6           0       -2.089444   -0.331014   -0.597818
     22          9           0       -4.788647   -2.722950   -0.971711
     23          1           0        4.767388   -1.343690    1.184540
     24          1           0        2.759006   -0.212858    2.135773
     25          1           0        0.379486   -1.740668   -1.110726
     26          1           0        2.391787   -2.884399   -2.032032
     27          1           0        1.305705    1.193610   -1.118166
     28          1           0        1.291715    3.508345   -2.039381
     29          1           0       -1.206241    4.803161    1.192859
     30          1           0       -1.182708    2.498195    2.143884
     31          1           0       -1.558512   -2.290087    2.130547
     32          1           0       -3.544779   -3.460281    1.180455
     33          1           0       -3.700176   -0.620441   -2.024977
     34          1           0       -1.701249    0.547162   -1.104481
 ---------------------------------------------------------------------

 SCF Done:  E(RB3LYP) =  -1333.99897750     a.u. after    1 cycles

 Excitation energies and oscillator strengths:

 Excited State   1:      Singlet-A      4.5714 eV  271.22 nm  f=0.1348  <S**2>=0.000
      81 -> 82         0.69395
 This state for optimization and/or second-order correction.
 Total Energy, E(TD-HF/TD-DFT) =  -1333.83098194
 Copying the excited state density for this state as the 1-particle RhoCI density.

 Excited State   2:      Singlet-A      4.5758 eV  270.96 nm  f=0.1319  <S**2>=0.000
      81 -> 83         0.68794

 Excited State   3:      Singlet-A      4.5835 eV  270.50 nm  f=0.0144  <S**2>=0.000
      81 -> 84         0.68301

 Excited State   4:      Singlet-A      4.9030 eV  252.87 nm  f=0.0017  <S**2>=0.000
      81 -> 85         0.67701

 Excited State   5:      Singlet-A      4.9054 eV  252.75 nm  f=0.0015  <S**2>=0.000
      81 -> 86         0.67649

 Excited State   6:      Singlet-A      5.2374 eV  236.73 nm  f=0.0076  <S**2>=0.000
      79 -> 82        -0.10769
      80 -> 83        -0.10866
      81 -> 87         0.67243

 Excited State   7:      Singlet-A      5.4181 eV  228.83 nm  f=0.0001  <S**2>=0.000
      75 -> 84         0.14157
      77 -> 82        -0.18234
      78 -> 83        -0.15308
      79 -> 82        -0.26846
      79 -> 83         0.30789
      79 -> 85        -0.16355
      80 -> 82        -0.30614
      80 -> 83        -0.26186
      80 -> 86        -0.14516

 Excited State   8:      Singlet-A      5.4446 eV  227.72 nm  f=0.0020  <S**2>=0.000
      76 -> 82         0.21147
      77 -> 82        -0.17011
      77 -> 87        -0.11345
      78 -> 83         0.19952
      79 -> 84        -0.32151
      79 -> 85        -0.12395
      80 -> 84         0.38453
      80 -> 86         0.14630
      81 -> 85         0.11748

 Excited State   9:      Singlet-A      5.4457 eV  227.67 nm  f=0.0023  <S**2>=0.000
      76 -> 83        -0.20754
      77 -> 83        -0.18012
      78 -> 82        -0.18264
      78 -> 87         0.11337
      79 -> 84         0.37740
      79 -> 86        -0.13533
      80 -> 84         0.33092
      80 -> 85        -0.13722
      81 -> 86        -0.11929

 Excited State  10:      Singlet-A      5.6622 eV  218.97 nm  f=0.0038  <S**2>=0.000
      75 -> 84         0.16170
      77 -> 82        -0.24004
      78 -> 83        -0.22338
      79 -> 83        -0.20424
      79 -> 85        -0.22818
      80 -> 82         0.36981
      80 -> 86        -0.24918

 The electronic state is 1-A.
 Alpha  occ. eigenvalues --  -77.09288 -24.70937 -24.70931 -24.70929 -10.27934
 Alpha  occ. eigenvalues --  -10.27927 -10.27923 -10.20805 -10.20800 -10.20800
 Alpha  occ. eigenvalues --  -10.20705 -10.20700 -10.20694 -10.20481 -10.20479
 Alpha  occ. eigenvalues --  -10.20478 -10.20321 -10.20315 -10.20312 -10.20311
 Alpha  occ. eigenvalues --  -10.20308 -10.20307  -6.55989  -4.72250  -4.72250
 Alpha  occ. eigenvalues --   -4.71746  -1.22116  -1.22110  -1.22107  -0.87208
 Alpha  occ. eigenvalues --   -0.86557  -0.86553  -0.77803  -0.76321  -0.76287
 Alpha  occ. eigenvalues --   -0.76284  -0.74869  -0.74866  -0.65458  -0.63134
 Alpha  occ. eigenvalues --   -0.62961  -0.62959  -0.60999  -0.60996  -0.57074
 Alpha  occ. eigenvalues --   -0.54667  -0.54664  -0.54253  -0.49449  -0.49446
 Alpha  occ. eigenvalues --   -0.49378  -0.48019  -0.48017  -0.46313  -0.46307
 Alpha  occ. eigenvalues --   -0.46295  -0.45862  -0.44923  -0.44921  -0.43855
 Alpha  occ. eigenvalues --   -0.43707  -0.43704  -0.42083  -0.40156  -0.40109
 Alpha  occ. eigenvalues --   -0.40107  -0.37161  -0.37154  -0.36442  -0.34999
 Alpha  occ. eigenvalues --   -0.34995  -0.34950  -0.33926  -0.33922  -0.27242
 Alpha  occ. eigenvalues --   -0.26853  -0.26600  -0.26594  -0.25429  -0.25417
 Alpha  occ. eigenvalues --   -0.21911
 Alpha virt. eigenvalues --   -0.02512  -0.02501  -0.02418  -0.01176  -0.01166
 Alpha virt. eigenvalues --   -0.00313   0.05868   0.05897   0.08470   0.10084
 Alpha virt. eigenvalues --    0.10087   0.12854   0.13527   0.13529   0.14051

 Mulliken charges:
               1
     1  C   -0.191242
     2  C   -0.153909
     3  C   -0.083796
     4  C   -0.166787
     5  C   -0.180407
     6  C    0.378771
     7  F   -0.287781
     8  P    0.435448
     9  C   -0.127811
    10  C   -0.186219
    11  C   -0.180835
    12  C    0.337989
    13  C   -0.194249
    14  C   -0.167641
    15  F   -0.305817
    16  C   -0.098332
    17  C   -0.176449
    18  C   -0.180310
    19  C    0.376968
    20  C   -0.191129
    21  C   -0.151016
    22  F   -0.288310
    23  H    0.155186
    24  H    0.153774
    25  H    0.157640
    26  H    0.157341
    27  H    0.129587
    28  H    0.136441
    29  H    0.133088
    30  H    0.126410
    31  H    0.145482
    32  H    0.153389
    33  H    0.157348
    34  H    0.177178
 Sum of Mulliken charges =  -0.00000

 Dipole moment (field-independent basis, Debye):
    X=             -0.0039    Y=             -3.2658    Z=              1.4553  Tot=              3.5754
 Quadrupole moment (field-independent basis, Debye-Ang):
   XX=           -133.1623   YY=           -145.8073   ZZ=           -121.8833
   XY=             -0.4163   XZ=              0.7470   YZ=              0.5569

 Summary of Natural Population Analysis:

                                       Natural Population
                Natural  -----------------------------------------------
    Atom  No    Charge         Core      Valence    Rydberg      Total
 -----------------------------------------------------------------------
      C    1   -0.31589      1.99899     4.30135    0.01555     6.31589
      C    2   -0.18306      1.99903     4.16889    0.01515     6.18306
      C    3   -0.40249      1.99889     4.37933    0.02427     6.40249
      C    4   -0.22984      1.99901     4.21374    0.01709     6.22984
      C    5   -0.28964      1.99898     4.27599    0.01466     6.28964
      C    6    0.43555      1.99844     3.53869    0.02732     5.56445
      F    7   -0.32437      1.99994     7.31887    0.00556     9.32437
      P    8    1.20979      9.99756     3.74113    0.05152    13.79021
      C    9   -0.49038      1.99887     4.46566    0.02586     6.49038
      C   10   -0.26905      1.99900     4.25140    0.01865     6.26905
      C   11   -0.28778      1.99899     4.27383    0.01495     6.28778
      C   12    0.36866      1.99844     3.60481    0.02809     5.63134
      C   13   -0.32013      1.99900     4.30523    0.01590     6.32013
      C   14   -0.20812      1.99902     4.19323    0.01587     6.20812
      F   15   -0.34037      1.99994     7.33495    0.00548     9.34037
      C   16   -0.42527      1.99890     4.40008    0.02629     6.42527
      C   17   -0.22160      1.99903     4.20641    0.01616     6.22160
      C   18   -0.29507      1.99899     4.28126    0.01481     6.29507
      C   19    0.43228      1.99844     3.54186    0.02743     5.56772
      C   20   -0.30910      1.99898     4.29492    0.01520     6.30910
      C   21   -0.19086      1.99901     4.17567    0.01618     6.19086
      F   22   -0.32490      1.99994     7.31939    0.00558     9.32490
      H   23    0.25574      0.00000     0.74309    0.00116     0.74426
      H   24    0.24600      0.00000     0.75275    0.00125     0.75400
      H   25    0.25160      0.00000     0.74713    0.00127     0.74840
      H   26    0.25660      0.00000     0.74221    0.00119     0.74340
      H   27    0.23570      0.00000     0.76275    0.00154     0.76430
      H   28    0.24664      0.00000     0.75215    0.00121     0.75336
      H   29    0.24504      0.00000     0.75376    0.00121     0.75496
      H   30    0.23081      0.00000     0.76826    0.00093     0.76919
      H   31    0.24048      0.00000     0.75848    0.00104     0.75952
      H   32    0.25413      0.00000     0.74464    0.00123     0.74587
      H   33    0.25697      0.00000     0.74185    0.00118     0.74303
      H   34    0.26193      0.00000     0.73665    0.00142     0.73807
 =======================================================================
   * Total *   -0.00000     51.97740   109.59042    0.43219   162.00000

 Normal termination of Gaussian 16 at Sun Aug 23 15:21:58 2020.
