 Gaussian 16, Revision A.03,

 ---------------------------------
 # opt=CalcAll B3LYP/6-31G* scf=qc
 ---------------------------------

 -------------------
 Title Card Required
 -------------------
 Symbolic Z-matrix:
 Charge =  0 Multiplicity = 1

 SCF Done:  E(RB3LYP) =  -1075.58709535     a.u. after    8 cycles
 SCF Done:  E(RB3LYP) =  -1075.59210002     a.u. after   15 cycles
 SCF Done:  E(RB3LYP) =  -1075.61114588     a.u. after   17 cycles
 SCF Done:  E(RB3LYP) =  -1075.61438309     a.u. after   15 cycles
 SCF Done:  E(RB3LYP) =  -1075.61563541     a.u. after   13 cycles
 SCF Done:  E(RB3LYP) =  -1075.61613820     a.u. after   13 cycles
 SCF Done:  E(RB3LYP) =  -1075.61642156     a.u. after   15 cycles
 SCF Done:  E(RB3LYP) =  -1075.61650479     a.u. after   13 cycles
 SCF Done:  E(RB3LYP) =  -1075.61651924     a.u. after    6 cycles
 SCF Done:  E(RB3LYP) =  -1075.61652466     a.u. after    4 cycles
 SCF Done:  E(RB3LYP) =  -1075.61652482     a.u. after    3 cycles
 SCF Done:  E(RB3LYP) =  -1075.61652476     a.u. after    2 cycles
 SCF Done:  E(RB3LYP) =  -1075.61652508     a.u. after    4 cycles
 SCF Done:  E(RB3LYP) =  -1075.61652509     a.u. after    3 cycles
 Optimization completed on the basis of negligible forces.
    -- Stationary point found.
 Normal termination of Gaussian 16 at Sat Aug 22 21:45:31 2020.

 ----------------------------------------------------------------------
 # freq B3LYP/6-31G* scf=qc volume NMR pop=NPA density=current Geom=All
 Check Guess=Read
 ----------------------------------------------------------------------

 Structure from the checkpoint file:  "phosphine_10_conf132.chk"
 -------------------
 Title Card Required
 -------------------
 Charge =  0 Multiplicity = 1

 SCF Done:  E(RB3LYP) =  -1075.61652509     a.u. after    1 cycles

      1  C    Isotropic =   167.7525   Anisotropy =    35.2938

      2  C    Isotropic =    57.9324   Anisotropy =   180.8125

      3  C    Isotropic =    67.8429   Anisotropy =   150.9901

      4  C    Isotropic =    60.7535   Anisotropy =   160.8810

      5  C    Isotropic =    59.2118   Anisotropy =   175.7984

      6  C    Isotropic =    62.2508   Anisotropy =   170.8385

      7  C    Isotropic =    67.3971   Anisotropy =   144.2625

      8  P    Isotropic =   362.7794   Anisotropy =    38.8902

      9  C    Isotropic =    55.6923   Anisotropy =   180.0608

     10  C    Isotropic =    61.1222   Anisotropy =   164.0944

     11  C    Isotropic =    68.7808   Anisotropy =   163.9973

     12  C    Isotropic =    68.3371   Anisotropy =   167.0525

     13  C    Isotropic =    68.7568   Anisotropy =   163.7246

     14  C    Isotropic =    62.6967   Anisotropy =   173.8189

     15  C    Isotropic =    56.0089   Anisotropy =   179.7751

     16  C    Isotropic =    61.0979   Anisotropy =   164.1930

     17  C    Isotropic =    68.7722   Anisotropy =   163.9402

     18  C    Isotropic =    68.2642   Anisotropy =   167.0064

     19  C    Isotropic =    68.7500   Anisotropy =   163.6724

     20  C    Isotropic =    62.7344   Anisotropy =   174.2319

     21  H    Isotropic =    29.9039   Anisotropy =     8.0674

     22  H    Isotropic =    30.3346   Anisotropy =     7.0355

     23  H    Isotropic =    29.7243   Anisotropy =     8.4542

     24  H    Isotropic =    25.0495   Anisotropy =     6.5483

     25  H    Isotropic =    24.6595   Anisotropy =     9.0940

     26  H    Isotropic =    25.4811   Anisotropy =    12.2696

     27  H    Isotropic =    25.2566   Anisotropy =     7.7087

     28  H    Isotropic =    24.6374   Anisotropy =     9.2930

     29  H    Isotropic =    24.9450   Anisotropy =     4.5937

     30  H    Isotropic =    25.0402   Anisotropy =     3.6167

     31  H    Isotropic =    25.0663   Anisotropy =     6.0823

     32  H    Isotropic =    25.4267   Anisotropy =    12.2088

     33  H    Isotropic =    24.6257   Anisotropy =     9.3011

     34  H    Isotropic =    24.9361   Anisotropy =     4.5748

     35  H    Isotropic =    25.0282   Anisotropy =     3.6582

     36  H    Isotropic =    25.0464   Anisotropy =     6.1676

     37  H    Isotropic =    25.3657   Anisotropy =    12.1733

  Exact polarizability: 250.592   0.019 231.670  -0.859   1.237 174.541
 Approx polarizability: 353.323   0.293 342.793  -0.889   1.324 323.205

                      1                      2                      3
                      A                      A                      A
 Frequencies --     13.4947                22.5552                24.1620
 Red. masses --      1.0540                 3.7566                 3.4455
 Frc consts  --      0.0001                 0.0011                 0.0012
 IR Inten    --      0.1999                 0.2641                 0.3207

                      4                      5                      6
                      A                      A                      A
 Frequencies --     39.3682                42.8859                52.0944
 Red. masses --      3.6431                 4.5464                 5.1362
 Frc consts  --      0.0033                 0.0049                 0.0082
 IR Inten    --      0.0065                 0.1457                 0.0755

                      7                      8                      9
                      A                      A                      A
 Frequencies --     64.1647               138.8137               178.1660
 Red. masses --      4.9527                 4.2039                 4.4980
 Frc consts  --      0.0120                 0.0477                 0.0841
 IR Inten    --      0.3014                 0.5793                 0.4532

                     10                     11                     12
                      A                      A                      A
 Frequencies --    199.5894               231.1486               237.2546
 Red. masses --      4.6428                 5.2533                 4.4534
 Frc consts  --      0.1090                 0.1654                 0.1477
 IR Inten    --      1.0492                 0.4778                 0.4420

                     13                     14                     15
                      A                      A                      A
 Frequencies --    255.5911               307.4200               355.9548
 Red. masses --      4.8936                 4.5421                 2.9321
 Frc consts  --      0.1884                 0.2529                 0.2189
 IR Inten    --      0.2000                 0.6613                 0.6708

                     16                     17                     18
                      A                      A                      A
 Frequencies --    406.7666               409.2485               413.7187
 Red. masses --      4.2377                 3.0383                 3.2857
 Frc consts  --      0.4131                 0.2998                 0.3314
 IR Inten    --      7.0027                 1.5484                 0.7352

                     19                     20                     21
                      A                      A                      A
 Frequencies --    417.8063               424.4776               439.9729
 Red. masses --      3.8241                 5.7078                 7.4715
 Frc consts  --      0.3933                 0.6059                 0.8521
 IR Inten    --      2.4089                 1.6598                 8.3925

                     22                     23                     24
                      A                      A                      A
 Frequencies --    506.3452               514.8837               523.4794
 Red. masses --      4.0147                 4.3392                 3.1985
 Frc consts  --      0.6064                 0.6778                 0.5164
 IR Inten    --     20.5936                18.4347                22.4934

                     25                     26                     27
                      A                      A                      A
 Frequencies --    622.0122               632.9152               634.3325
 Red. masses --      5.6105                 6.4283                 6.3772
 Frc consts  --      1.2789                 1.5172                 1.5119
 IR Inten    --      9.7586                 0.1521                 1.8008

                     28                     29                     30
                      A                      A                      A
 Frequencies --    654.1714               697.2716               705.1660
 Red. masses --      6.9641                 6.6232                 5.9100
 Frc consts  --      1.7559                 1.8972                 1.7315
 IR Inten    --      0.0437                 1.1174                 1.8985

                     31                     32                     33
                      A                      A                      A
 Frequencies --    711.8641               712.9507               727.6533
 Red. masses --      2.1539                 2.1320                 3.8422
 Frc consts  --      0.6431                 0.6385                 1.1986
 IR Inten    --     24.6726                20.6585                 2.4977

                     34                     35                     36
                      A                      A                      A
 Frequencies --    761.8493               762.4808               814.1582
 Red. masses --      1.6348                 1.6389                 4.8647
 Frc consts  --      0.5591                 0.5614                 1.8999
 IR Inten    --     21.4844                24.7415                 0.4018

                     37                     38                     39
                      A                      A                      A
 Frequencies --    826.2935               862.7946               866.1655
 Red. masses --      1.3678                 1.2486                 1.2477
 Frc consts  --      0.5502                 0.5476                 0.5515
 IR Inten    --     22.0658                 0.3030                 0.2446

                     40                     41                     42
                      A                      A                      A
 Frequencies --    868.1689               932.5680               933.4885
 Red. masses --      1.2465                 1.3447                 1.3415
 Frc consts  --      0.5535                 0.6890                 0.6888
 IR Inten    --      0.0975                 1.2419                 0.4938

                     43                     44                     45
                      A                      A                      A
 Frequencies --    971.8013               973.1644               975.7223
 Red. masses --      1.2855                 1.3302                 1.3606
 Frc consts  --      0.7153                 0.7422                 0.7632
 IR Inten    --      0.0879                 0.0251                 0.0209

                     46                     47                     48
                      A                      A                      A
 Frequencies --    977.3862               999.9514              1000.4852
 Red. masses --      1.3478                 1.2532                 1.2522
 Frc consts  --      0.7586                 0.7383                 0.7385
 IR Inten    --      0.1162                 0.0929                 0.0281

                     49                     50                     51
                      A                      A                      A
 Frequencies --   1015.3444              1015.5784              1017.9233
 Red. masses --      6.2396                 6.2397                 1.4510
 Frc consts  --      3.7899                 3.7917                 0.8858
 IR Inten    --      4.2787                 1.8328                 1.4363

                     52                     53                     54
                      A                      A                      A
 Frequencies --   1037.9097              1052.7463              1052.9124
 Red. masses --      3.5713                 3.3146                 3.2749
 Frc consts  --      2.2667                 2.1644                 2.1391
 IR Inten    --      4.9522                 2.1755                 0.8107

                     55                     56                     57
                      A                      A                      A
 Frequencies --   1075.2584              1107.9963              1108.7854
 Red. masses --      1.5292                 1.8766                 1.9894
 Frc consts  --      1.0417                 1.3574                 1.4410
 IR Inten    --      8.4705                 3.7695                 6.6348

                     58                     59                     60
                      A                      A                      A
 Frequencies --   1110.1047              1110.7047              1116.0678
 Red. masses --      2.4170                 2.2364                 2.8501
 Frc consts  --      1.7549                 1.6255                 2.0917
 IR Inten    --     10.7108                 9.4565                 1.0869

                     61                     62                     63
                      A                      A                      A
 Frequencies --   1150.3993              1193.4942              1193.7636
 Red. masses --      1.3592                 1.1021                 1.0999
 Frc consts  --      1.0598                 0.9249                 0.9235
 IR Inten    --      1.7710                 0.0471                 0.1317

                     64                     65                     66
                      A                      A                      A
 Frequencies --   1219.2785              1220.3614              1226.1681
 Red. masses --      1.1477                 1.1476                 1.1422
 Frc consts  --      1.0052                 1.0070                 1.0118
 IR Inten    --      6.0065                 3.9085                 7.5702

                     67                     68                     69
                      A                      A                      A
 Frequencies --   1241.4648              1324.5885              1328.1045
 Red. masses --      2.9390                 3.8543                 3.9196
 Frc consts  --      2.6688                 3.9843                 4.0734
 IR Inten    --      1.4991                 3.3358                 3.4430

                     70                     71                     72
                      A                      A                      A
 Frequencies --   1328.7862              1352.9046              1365.2205
 Red. masses --      3.4984                 1.5137                 1.6562
 Frc consts  --      3.6394                 1.6324                 1.8187
 IR Inten    --      2.5432                 0.2971                 0.3227

                     73                     74                     75
                      A                      A                      A
 Frequencies --   1365.6333              1441.7581              1442.7031
 Red. masses --      1.6411                 2.1660                 1.3441
 Frc consts  --      1.8033                 2.6528                 1.6482
 IR Inten    --      1.8480                 5.1250                 1.1978

                     76                     77                     78
                      A                      A                      A
 Frequencies --   1480.5805              1480.9615              1516.4461
 Red. masses --      2.1129                 2.1165                 1.0518
 Frc consts  --      2.7290                 2.7350                 1.4251
 IR Inten    --     12.9286                 6.9250                 5.5654

                     79                     80                     81
                      A                      A                      A
 Frequencies --   1520.8597              1531.2913              1531.6027
 Red. masses --      1.0961                 2.0061                 1.9984
 Frc consts  --      1.4937                 2.7716                 2.7621
 IR Inten    --      8.8750                 5.0530                10.3705

                     82                     83                     84
                      A                      A                      A
 Frequencies --   1547.1798              1614.0176              1630.2305
 Red. masses --      2.2382                 5.1561                 5.1038
 Frc consts  --      3.1567                 7.9139                 7.9917
 IR Inten    --     13.6404                 0.3779                 0.2824

                     85                     86                     87
                      A                      A                      A
 Frequencies --   1630.4495              1646.1766              1647.3445
 Red. masses --      5.1156                 5.2716                 5.2789
 Frc consts  --      8.0124                 8.4168                 8.4403
 IR Inten    --      0.1338                 3.7849                 1.4453

                     88                     89                     90
                      A                      A                      A
 Frequencies --   1659.6051              3041.0022              3095.8958
 Red. masses --      5.5338                 1.0398                 1.0972
 Frc consts  --      8.9802                 5.6655                 6.1960
 IR Inten    --      5.9696                36.7830                20.6413

                     91                     92                     93
                      A                      A                      A
 Frequencies --   3125.0947              3170.6495              3174.9774
 Red. masses --      1.1019                 1.0868                 1.0885
 Frc consts  --      6.3404                 6.4372                 6.4651
 IR Inten    --     15.7158                11.8188                19.1109

                     94                     95                     96
                      A                      A                      A
 Frequencies --   3175.6271              3175.6737              3182.1190
 Red. masses --      1.0853                 1.0853                 1.0875
 Frc consts  --      6.4486                 6.4487                 6.4881
 IR Inten    --      2.2418                 2.4641                 0.6945

                     97                     98                     99
                      A                      A                      A
 Frequencies --   3182.2375              3188.4455              3192.4143
 Red. masses --      1.0875                 1.0941                 1.0917
 Frc consts  --      6.4888                 6.5531                 6.5550
 IR Inten    --      0.5059                22.1632                11.0775

                    100                    101                    102
                      A                      A                      A
 Frequencies --   3192.5004              3203.6017              3203.8407
 Red. masses --      1.0917                 1.0942                 1.0942
 Frc consts  --      6.5558                 6.6163                 6.6174
 IR Inten    --     35.6002                42.1119                17.3603

                    103                    104                    105
                      A                      A                      A
 Frequencies --   3205.7285              3209.7994              3210.4371
 Red. masses --      1.0921                 1.0955                 1.0955
 Frc consts  --      6.6123                 6.6502                 6.6525
 IR Inten    --      6.4026                19.2614                18.2188

 - Thermochemistry -
 -------------------
 Temperature   298.150 Kelvin.  Pressure   1.00000 Atm.
 Atom     1 has atomic number  6 and mass  12.00000

 Molecular mass:   276.10679 amu.
 Principal axes and moments of inertia in atomic units:
                           1         2         3
     Eigenvalues --  5221.202256873.30126**********
           X            1.00000   0.00089   0.00303
           Y           -0.00089   1.00000   0.00016
           Z           -0.00303  -0.00017   1.00000
 This molecule is an asymmetric top.
 Rotational symmetry number  1.
 Warning -- assumption of classical behavior for rotation
           may cause significant error
 Rotational temperatures (Kelvin)      0.01659     0.01260     0.00839
 Rotational constants (GHZ):           0.34566     0.26257     0.17479
 Zero-point vibrational energy     792088.9 (Joules/Mol)
                                  189.31380 (Kcal/Mol)
 Warning -- explicit consideration of  24 degrees of freedom as
           vibrations may cause significant error
 Vibrational temperatures:     19.42    32.45    34.76    56.64    61.70
          (Kelvin)             74.95    92.32   199.72   256.34   287.16
                              332.57   341.36   367.74   442.31   512.14
                              585.25   588.82   595.25   601.13   610.73
                              633.02   728.52   740.80   753.17   894.94
                              910.62   912.66   941.21  1003.22  1014.58
                             1024.21  1025.78  1046.93  1096.13  1097.04
                             1171.39  1188.85  1241.37  1246.22  1249.10
                             1341.76  1343.08  1398.21  1400.17  1403.85
                             1406.24  1438.71  1439.48  1460.85  1461.19
                             1464.56  1493.32  1514.67  1514.91  1547.06
                             1594.16  1595.29  1597.19  1598.06  1605.77
                             1655.17  1717.17  1717.56  1754.27  1755.83
                             1764.18  1786.19  1905.79  1910.85  1911.83
                             1946.53  1964.25  1964.84  2074.37  2075.73
                             2130.23  2130.77  2181.83  2188.18  2203.19
                             2203.63  2226.05  2322.21  2345.54  2345.85
                             2368.48  2370.16  2387.80  4375.32  4454.30
                             4496.31  4561.86  4568.08  4569.02  4569.09
                             4578.36  4578.53  4587.46  4593.17  4593.30
                             4609.27  4609.61  4612.33  4618.19  4619.10

 Zero-point correction=                           0.301691 (Hartree/Particle)
 Thermal correction to Energy=                    0.319562
 Thermal correction to Enthalpy=                  0.320506
 Thermal correction to Gibbs Free Energy=         0.251293
 Sum of electronic and zero-point Energies=          -1075.314834
 Sum of electronic and thermal Energies=             -1075.296963
 Sum of electronic and thermal Enthalpies=           -1075.296019
 Sum of electronic and thermal Free Energies=        -1075.365232

                     E (Thermal)             CV                S
                      KCal/Mol        Cal/Mol-Kelvin    Cal/Mol-Kelvin
 Total                  200.528             68.562            145.671
 Electronic               0.000              0.000              0.000
 Translational            0.889              2.981             42.745
 Rotational               0.889              2.981             34.271
 Vibrational            198.751             62.600             68.655
 Vibration     1          0.593              1.987              7.416
 Vibration     2          0.593              1.985              6.395
 Vibration     3          0.593              1.985              6.259
 Vibration     4          0.594              1.981              5.291
 Vibration     5          0.595              1.980              5.121
 Vibration     6          0.596              1.977              4.736
 Vibration     7          0.597              1.971              4.325
 Vibration     8          0.614              1.915              2.820
 Vibration     9          0.629              1.869              2.348
 Vibration    10          0.638              1.840              2.137
 Vibration    11          0.653              1.793              1.870
 Vibration    12          0.656              1.784              1.823
 Vibration    13          0.666              1.753              1.692
 Vibration    14          0.697              1.660              1.376
 Vibration    15          0.731              1.563              1.140
 Vibration    16          0.772              1.456              0.938
 Vibration    17          0.774              1.450              0.929
 Vibration    18          0.777              1.440              0.914
 Vibration    19          0.781              1.432              0.899
 Vibration    20          0.786              1.417              0.877
 Vibration    21          0.800              1.383              0.827
 Vibration    22          0.862              1.236              0.642
 Vibration    23          0.870              1.217              0.622
 Vibration    24          0.878              1.198              0.602

 Optimization completed on the basis of negligible forces.
    -- Stationary point found.
 Normal termination of Gaussian 16 at Sat Aug 22 21:59:25 2020.
 Gaussian 16:  ES64L-G16RevA.03 25-Dec-2016

 ----------------------------------------------------------------------
 # TD(NStates=10, Root=1) B3LYP/6-31G* scf=qc volume pop=NPA density=cu
 rrent Geom=AllCheck Guess=Read
 ----------------------------------------------------------------------

 Structure from the checkpoint file:  "phosphine_10_conf133.chk"
 -------------------
 Title Card Required
 -------------------
 Charge =  0 Multiplicity = 1

                         Standard orientation:
 ---------------------------------------------------------------------
 Center     Atomic      Atomic             Coordinates (Angstroms)
 Number     Number       Type             X           Y           Z
 ---------------------------------------------------------------------
      1          6           0        5.447040    0.034687    0.766445
      2          6           0        4.011633   -0.000324    0.296714
      3          6           0        3.615976    0.690212   -0.857797
      4          6           0        2.291988    0.668856   -1.288889
      5          6           0        1.307361   -0.031703   -0.571387
      6          6           0        1.702735   -0.727187    0.579805
      7          6           0        3.033594   -0.711561    1.001472
      8         15           0       -0.414979   -0.000756   -1.251316
      9          6           0       -1.214658   -1.432217   -0.384963
     10          6           0       -1.127139   -2.685105   -1.015361
     11          6           0       -1.707455   -3.816885   -0.443318
     12          6           0       -2.403384   -3.711652    0.762910
     13          6           0       -2.510253   -2.470688    1.392537
     14          6           0       -1.919027   -1.339602    0.825109
     15          6           0       -1.168099    1.460304   -0.392841
     16          6           0       -2.360400    1.970042   -0.934509
     17          6           0       -2.992152    3.074348   -0.363140
     18          6           0       -2.430924    3.701328    0.751420
     19          6           0       -1.239355    3.214275    1.290808
     20          6           0       -0.613175    2.101269    0.725231
     21          1           0        6.145812   -0.090388   -0.068665
     22          1           0        5.649205   -0.755018    1.497079
     23          1           0        5.686049    0.994118    1.244341
     24          1           0        4.357417    1.241152   -1.432980
     25          1           0        2.018277    1.196728   -2.199752
     26          1           0        0.970832   -1.292513    1.149130
     27          1           0        3.315863   -1.264301    1.895205
     28          1           0       -0.603390   -2.771666   -1.964753
     29          1           0       -1.625714   -4.778086   -0.944314
     30          1           0       -2.865047   -4.590412    1.205597
     31          1           0       -3.054482   -2.380450    2.329385
     32          1           0       -2.010003   -0.379872    1.324827
     33          1           0       -2.793357    1.499223   -1.814320
     34          1           0       -3.915958    3.451622   -0.794212
     35          1           0       -2.916082    4.568207    1.192411
     36          1           0       -0.794357    3.700372    2.155517
     37          1           0        0.313784    1.732229    1.153785
 ---------------------------------------------------------------------

 SCF Done:  E(RB3LYP) =  -1075.61652509     a.u. after    1 cycles

 Excitation energies and oscillator strengths:

 Excited State   1:      Singlet-A      4.4828 eV  276.58 nm  f=0.1258  <S**2>=0.000
      73 -> 74         0.69033
 This state for optimization and/or second-order correction.
 Total Energy, E(TD-HF/TD-DFT) =  -1075.45178685
 Copying the excited state density for this state as the 1-particle RhoCI density.

 Excited State   2:      Singlet-A      4.5044 eV  275.25 nm  f=0.1549  <S**2>=0.000
      73 -> 75         0.68961

 Excited State   3:      Singlet-A      4.7350 eV  261.84 nm  f=0.0041  <S**2>=0.000
      73 -> 76         0.67519

 Excited State   4:      Singlet-A      5.0211 eV  246.93 nm  f=0.0005  <S**2>=0.000
      69 -> 74        -0.11859
      69 -> 75         0.11725
      71 -> 75         0.14418
      73 -> 77         0.27631
      73 -> 78         0.42384
      73 -> 79         0.38001

 Excited State   5:      Singlet-A      5.0389 eV  246.06 nm  f=0.0004  <S**2>=0.000
      69 -> 74        -0.12820
      70 -> 75         0.12150
      71 -> 74         0.12794
      73 -> 77        -0.11674
      73 -> 78         0.46355
      73 -> 79        -0.42345

 Excited State   6:      Singlet-A      5.1321 eV  241.59 nm  f=0.0088  <S**2>=0.000
      72 -> 75        -0.10156
      73 -> 77         0.60728
      73 -> 78        -0.11542
      73 -> 79        -0.27284

 Excited State   7:      Singlet-A      5.3922 eV  229.93 nm  f=0.0108  <S**2>=0.000
      67 -> 76         0.14124
      68 -> 78         0.10438
      71 -> 74         0.26719
      71 -> 75        -0.28813
      72 -> 74         0.39734
      72 -> 75         0.24481
      72 -> 78         0.10102
      72 -> 79         0.11690
      73 -> 76         0.15026

 Excited State   8:      Singlet-A      5.4757 eV  226.43 nm  f=0.0011  <S**2>=0.000
      68 -> 75        -0.11786
      68 -> 78        -0.11672
      69 -> 74         0.17768
      69 -> 75        -0.16811
      70 -> 74         0.19534
      70 -> 76         0.17941
      71 -> 75        -0.19840
      71 -> 77         0.10684
      72 -> 74        -0.20581
      72 -> 76         0.30980
      72 -> 79         0.14141
      73 -> 78         0.18020
      73 -> 79         0.21015

 Excited State   9:      Singlet-A      5.5079 eV  225.10 nm  f=0.0004  <S**2>=0.000
      67 -> 78         0.12496
      67 -> 79        -0.10192
      68 -> 74        -0.12086
      68 -> 76         0.28960
      68 -> 79        -0.11389
      69 -> 74         0.19187
      69 -> 75         0.11293
      70 -> 75        -0.24721
      71 -> 74        -0.24627
      71 -> 76        -0.15898
      72 -> 75         0.19653
      72 -> 78        -0.12271
      73 -> 78         0.20331
      73 -> 79        -0.18243

 Excited State  10:      Singlet-A      5.5919 eV  221.72 nm  f=0.0273  <S**2>=0.000
      67 -> 76        -0.11344
      68 -> 74        -0.10678
      68 -> 78        -0.10274
      69 -> 75        -0.11419
      70 -> 74         0.26609
      70 -> 75         0.27417
      71 -> 74        -0.29479
      72 -> 74         0.39317

 The electronic state is 1-A.
 Alpha  occ. eigenvalues --  -77.07945 -10.19771 -10.19314 -10.19304 -10.19069
 Alpha  occ. eigenvalues --  -10.19041 -10.19025 -10.19001 -10.18987 -10.18924
 Alpha  occ. eigenvalues --  -10.18911 -10.18906 -10.18902 -10.18890 -10.18840
 Alpha  occ. eigenvalues --  -10.18832 -10.18764 -10.18564 -10.18547 -10.18475
 Alpha  occ. eigenvalues --   -6.54672  -4.70933  -4.70930  -4.70430  -0.85537
 Alpha  occ. eigenvalues --   -0.84932  -0.84725  -0.77631  -0.75297  -0.74227
 Alpha  occ. eigenvalues --   -0.74185  -0.74071  -0.73692  -0.68846  -0.63430
 Alpha  occ. eigenvalues --   -0.60388  -0.60195  -0.60056  -0.59113  -0.58030
 Alpha  occ. eigenvalues --   -0.55276  -0.51322  -0.50558  -0.47949  -0.45989
 Alpha  occ. eigenvalues --   -0.45192  -0.45025  -0.44442  -0.44215  -0.43866
 Alpha  occ. eigenvalues --   -0.41977  -0.41781  -0.41715  -0.41515  -0.40307
 Alpha  occ. eigenvalues --   -0.39437  -0.38506  -0.36529  -0.36182  -0.35810
 Alpha  occ. eigenvalues --   -0.35187  -0.34113  -0.34091  -0.33601  -0.31726
 Alpha  occ. eigenvalues --   -0.31686  -0.26498  -0.25315  -0.25096  -0.24911
 Alpha  occ. eigenvalues --   -0.24542  -0.24340  -0.20883
 Alpha virt. eigenvalues --   -0.01757  -0.01676  -0.00679   0.00285   0.00541
 Alpha virt. eigenvalues --    0.00595   0.06948   0.07103   0.09695   0.10949
 Alpha virt. eigenvalues --    0.11218   0.12871   0.13553   0.13902   0.14597

 Mulliken charges:
               1
     1  C   -0.531691
     2  C    0.176690
     3  C   -0.169531
     4  C   -0.151889
     5  C   -0.082630
     6  C   -0.154751
     7  C   -0.167441
     8  P    0.441998
     9  C   -0.106150
    10  C   -0.170113
    11  C   -0.117147
    12  C   -0.138788
    13  C   -0.122941
    14  C   -0.154463
    15  C   -0.130679
    16  C   -0.170813
    17  C   -0.123136
    18  C   -0.170466
    19  C   -0.119066
    20  C   -0.174564
    21  H    0.165344
    22  H    0.161580
    23  H    0.174723
    24  H    0.132395
    25  H    0.147011
    26  H    0.159813
    27  H    0.135540
    28  H    0.132279
    29  H    0.130511
    30  H    0.131415
    31  H    0.135836
    32  H    0.168072
    33  H    0.112802
    34  H    0.111699
    35  H    0.104949
    36  H    0.113852
    37  H    0.119749
 Sum of Mulliken charges =  -0.00000

 Dipole moment (field-independent basis, Debye):
    X=              3.4300    Y=             -2.7205    Z=             -0.2017  Tot=              4.3825
 Quadrupole moment (field-independent basis, Debye-Ang):
   XX=           -112.8886   YY=           -125.6898   ZZ=           -117.3331
   XY=              6.0930   XZ=              0.6110   YZ=             -1.2679

 Summary of Natural Population Analysis:

                                       Natural Population
                Natural  -----------------------------------------------
    Atom  No    Charge         Core      Valence    Rydberg      Total
 -----------------------------------------------------------------------
      C    1   -0.69283      1.99939     4.68600    0.00744     6.69283
      C    2   -0.00269      1.99903     3.98944    0.01422     6.00269
      C    3   -0.24055      1.99902     4.22784    0.01368     6.24055
      C    4   -0.19019      1.99902     4.17584    0.01533     6.19019
      C    5   -0.38433      1.99889     4.36146    0.02397     6.38433
      C    6   -0.21910      1.99899     4.20322    0.01688     6.21910
      C    7   -0.22139      1.99902     4.20938    0.01299     6.22139
      P    8    1.22815      9.99753     3.72394    0.05038    13.77185
      C    9   -0.42622      1.99890     4.40105    0.02627     6.42622
      C   10   -0.22488      1.99902     4.21014    0.01572     6.22488
      C   11   -0.23322      1.99910     4.21982    0.01431     6.23322
      C   12   -0.23464      1.99909     4.22064    0.01490     6.23464
      C   13   -0.23580      1.99909     4.22232    0.01439     6.23580
      C   14   -0.21446      1.99899     4.19870    0.01677     6.21446
      C   15   -0.48365      1.99886     4.45949    0.02529     6.48365
      C   16   -0.23378      1.99901     4.21839    0.01637     6.23378
      C   17   -0.24520      1.99910     4.23105    0.01505     6.24520
      C   18   -0.30166      1.99910     4.28579    0.01678     6.30166
      C   19   -0.23129      1.99909     4.21759    0.01461     6.23129
      C   20   -0.26277      1.99899     4.24590    0.01788     6.26277
      H   21    0.24446      0.00000     0.75447    0.00107     0.75554
      H   22    0.24085      0.00000     0.75832    0.00082     0.75915
      H   23    0.25062      0.00000     0.74833    0.00104     0.74938
      H   24    0.23852      0.00000     0.76042    0.00106     0.76148
      H   25    0.24253      0.00000     0.75624    0.00122     0.75747
      H   26    0.25347      0.00000     0.74530    0.00123     0.74653
      H   27    0.24013      0.00000     0.75882    0.00105     0.75987
      H   28    0.23276      0.00000     0.76616    0.00108     0.76724
      H   29    0.23696      0.00000     0.76207    0.00096     0.76304
      H   30    0.23563      0.00000     0.76348    0.00089     0.76437
      H   31    0.24049      0.00000     0.75862    0.00089     0.75951
      H   32    0.25679      0.00000     0.74179    0.00142     0.74321
      H   33    0.22386      0.00000     0.77511    0.00103     0.77614
      H   34    0.22877      0.00000     0.77033    0.00090     0.77123
      H   35    0.22427      0.00000     0.77484    0.00089     0.77573
      H   36    0.23027      0.00000     0.76885    0.00088     0.76973
      H   37    0.23009      0.00000     0.76841    0.00150     0.76991
 =======================================================================
   * Total *    0.00000     47.97922    97.63958    0.38120   146.00000

 Normal termination of Gaussian 16 at Sat Aug 22 22:12:36 2020.
