 Gaussian 16, Revision A.03,

 ---------------------------------
 # opt=CalcAll B3LYP/6-31G* scf=qc
 ---------------------------------

 -------------------
 Title Card Required
 -------------------
 Symbolic Z-matrix:
 Charge =  0 Multiplicity = 1

 SCF Done:  E(RB3LYP) =  -1036.24851869     a.u. after    8 cycles
 SCF Done:  E(RB3LYP) =  -1036.26390571     a.u. after   17 cycles
 SCF Done:  E(RB3LYP) =  -1036.29002916     a.u. after   17 cycles
 SCF Done:  E(RB3LYP) =  -1036.29509683     a.u. after   17 cycles
 SCF Done:  E(RB3LYP) =  -1036.29708232     a.u. after   19 cycles
 SCF Done:  E(RB3LYP) =  -1036.29797280     a.u. after   17 cycles
 SCF Done:  E(RB3LYP) =  -1036.29807492     a.u. after   17 cycles
 SCF Done:  E(RB3LYP) =  -1036.29818399     a.u. after    9 cycles
 SCF Done:  E(RB3LYP) =  -1036.29822719     a.u. after    9 cycles
 SCF Done:  E(RB3LYP) =  -1036.29823297     a.u. after    5 cycles
 SCF Done:  E(RB3LYP) =  -1036.29823982     a.u. after    4 cycles
 SCF Done:  E(RB3LYP) =  -1036.29823466     a.u. after    3 cycles
 SCF Done:  E(RB3LYP) =  -1036.29823122     a.u. after    2 cycles
 SCF Done:  E(RB3LYP) =  -1036.29823095     a.u. after    4 cycles
 SCF Done:  E(RB3LYP) =  -1036.29823887     a.u. after    3 cycles
 SCF Done:  E(RB3LYP) =  -1036.29823058     a.u. after    2 cycles
 SCF Done:  E(RB3LYP) =  -1036.29823674     a.u. after    2 cycles
 Optimization completed.
    -- Stationary point found.
 Normal termination of Gaussian 16 at Sun Aug 23 06:18:31 2020.

 ----------------------------------------------------------------------
 # freq B3LYP/6-31G* scf=qc volume NMR pop=NPA density=current Geom=All
 Check Guess=Read
 ----------------------------------------------------------------------

 Structure from the checkpoint file:  "phosphine_1_conf22.chk"
 -------------------
 Title Card Required
 -------------------
 Charge =  0 Multiplicity = 1

 SCF Done:  E(RB3LYP) =  -1036.29823674     a.u. after    1 cycles

      1  C    Isotropic =    68.1611   Anisotropy =   167.3184

      2  C    Isotropic =    68.7310   Anisotropy =   164.1332

      3  C    Isotropic =    61.0191   Anisotropy =   164.1219

      4  C    Isotropic =    56.1214   Anisotropy =   179.4250

      5  C    Isotropic =    62.5895   Anisotropy =   174.0372

      6  C    Isotropic =    68.6809   Anisotropy =   163.8828

      7  P    Isotropic =   361.6100   Anisotropy =    40.0386

      8  C    Isotropic =    56.1309   Anisotropy =   179.4305

      9  C    Isotropic =    62.5888   Anisotropy =   174.0470

     10  C    Isotropic =    68.6722   Anisotropy =   163.8885

     11  C    Isotropic =    68.1631   Anisotropy =   167.3146

     12  C    Isotropic =    68.7333   Anisotropy =   164.1331

     13  C    Isotropic =    61.0199   Anisotropy =   164.1328

     14  C    Isotropic =    56.1337   Anisotropy =   179.4234

     15  C    Isotropic =    60.9933   Anisotropy =   164.1019

     16  C    Isotropic =    68.7268   Anisotropy =   164.1488

     17  C    Isotropic =    68.1625   Anisotropy =   167.3373

     18  C    Isotropic =    68.6741   Anisotropy =   163.8840

     19  C    Isotropic =    62.5713   Anisotropy =   174.0403

     20  H    Isotropic =    25.0214   Anisotropy =     3.6412

     21  H    Isotropic =    24.9271   Anisotropy =     4.5894

     22  H    Isotropic =    24.6130   Anisotropy =     9.2524

     23  H    Isotropic =    25.4018   Anisotropy =    12.2245

     24  H    Isotropic =    25.0484   Anisotropy =     6.0853

     25  H    Isotropic =    25.4001   Anisotropy =    12.2281

     26  H    Isotropic =    25.0477   Anisotropy =     6.0867

     27  H    Isotropic =    25.0206   Anisotropy =     3.6416

     28  H    Isotropic =    24.9274   Anisotropy =     4.5877

     29  H    Isotropic =    24.6125   Anisotropy =     9.2540

     30  H    Isotropic =    24.6114   Anisotropy =     9.2498

     31  H    Isotropic =    24.9254   Anisotropy =     4.5902

     32  H    Isotropic =    25.0193   Anisotropy =     3.6436

     33  H    Isotropic =    25.0481   Anisotropy =     6.0845

     34  H    Isotropic =    25.3992   Anisotropy =    12.2164

  Exact polarizability: 224.183   0.017 224.079   0.038  -0.015 165.063
 Approx polarizability: 330.978   0.039 330.777   0.088  -0.036 308.076

                      1                      2                      3
                      A                      A                      A
 Frequencies --     23.4064                24.9713                39.1926
 Red. masses --      3.7981                 3.8017                 3.6898
 Frc consts  --      0.0012                 0.0014                 0.0033
 IR Inten    --      0.2821                 0.2819                 0.0018

                      4                      5                      6
                      A                      A                      A
 Frequencies --     53.3934                53.4651                70.7284
 Red. masses --      5.2512                 5.2457                 5.1677
 Frc consts  --      0.0088                 0.0088                 0.0152
 IR Inten    --      0.0842                 0.0868                 0.3098

                      7                      8                      9
                      A                      A                      A
 Frequencies --    181.5508               202.3577               202.7624
 Red. masses --      4.5617                 4.6439                 4.6419
 Frc consts  --      0.0886                 0.1120                 0.1124
 IR Inten    --      0.3538                 1.1342                 1.1360

                     10                     11                     12
                      A                      A                      A
 Frequencies --    245.5366               259.6806               259.8842
 Red. masses --      5.7391                 4.7179                 4.7228
 Frc consts  --      0.2039                 0.1874                 0.1879
 IR Inten    --      0.4817                 0.2274                 0.2246

                     13                     14                     15
                      A                      A                      A
 Frequencies --    408.8539               408.9555               412.4274
 Red. masses --      3.0785                 3.0817                 3.6197
 Frc consts  --      0.3032                 0.3037                 0.3628
 IR Inten    --      1.9591                 1.9773                 0.1661

                     16                     17                     18
                      A                      A                      A
 Frequencies --    417.1388               429.4675               429.5833
 Red. masses --      4.5757                 7.3095                 7.3036
 Frc consts  --      0.4691                 0.7943                 0.7941
 IR Inten    --      0.5571                 7.7022                 7.7000

                     19                     20                     21
                      A                      A                      A
 Frequencies --    509.4739               509.6188               516.4555
 Red. masses --      4.2477                 4.2460                 4.5894
 Frc consts  --      0.6496                 0.6497                 0.7212
 IR Inten    --     26.1235                26.1140                11.9495

                     22                     23                     24
                      A                      A                      A
 Frequencies --    632.7217               632.7438               633.3727
 Red. masses --      6.4271                 6.4274                 6.4371
 Frc consts  --      1.5160                 1.5161                 1.5215
 IR Inten    --      0.1789                 0.1803                 0.0163

                     25                     26                     27
                      A                      A                      A
 Frequencies --    691.8294               705.1899               705.2151
 Red. masses --      6.5806                 5.7515                 5.7349
 Frc consts  --      1.8557                 1.6852                 1.6804
 IR Inten    --      0.7910                 1.1318                 1.0942

                     28                     29                     30
                      A                      A                      A
 Frequencies --    712.3040               712.3945               713.4030
 Red. masses --      2.1986                 2.1972                 2.1358
 Frc consts  --      0.6572                 0.6570                 0.6404
 IR Inten    --     26.4026                26.4736                16.5904

                     31                     32                     33
                      A                      A                      A
 Frequencies --    761.4354               762.9173               762.9483
 Red. masses --      1.6148                 1.6488                 1.6479
 Frc consts  --      0.5516                 0.5654                 0.5652
 IR Inten    --     19.2091                24.9095                24.9091

                     34                     35                     36
                      A                      A                      A
 Frequencies --    866.2224               866.3006               868.8744
 Red. masses --      1.2477                 1.2477                 1.2462
 Frc consts  --      0.5516                 0.5517                 0.5543
 IR Inten    --      0.2255                 0.2213                 0.1312

                     37                     38                     39
                      A                      A                      A
 Frequencies --    932.9770               933.0447               934.3410
 Red. masses --      1.3441                 1.3440                 1.3382
 Frc consts  --      0.6893                 0.6894                 0.6883
 IR Inten    --      1.2687                 1.2608                 0.0321

                     40                     41                     42
                      A                      A                      A
 Frequencies --    975.8429               975.9067               977.7607
 Red. masses --      1.3612                 1.3611                 1.3553
 Frc consts  --      0.7637                 0.7638                 0.7634
 IR Inten    --      0.0164                 0.0153                 0.1393

                     43                     44                     45
                      A                      A                      A
 Frequencies --   1000.4004              1000.4164              1001.1652
 Red. masses --      1.2542                 1.2542                 1.2524
 Frc consts  --      0.7395                 0.7396                 0.7396
 IR Inten    --      0.0823                 0.0800                 0.0004

                     46                     47                     48
                      A                      A                      A
 Frequencies --   1015.3568              1015.3717              1015.7521
 Red. masses --      6.3104                 6.3129                 6.3101
 Frc consts  --      3.8330                 3.8347                 3.8359
 IR Inten    --      4.3650                 4.3654                 0.0449

                     49                     50                     51
                      A                      A                      A
 Frequencies --   1052.6997              1052.7647              1052.9410
 Red. masses --      3.3125                 3.3175                 3.2547
 Frc consts  --      2.1628                 2.1664                 2.1260
 IR Inten    --      2.0923                 2.0621                 0.0536

                     52                     53                     54
                      A                      A                      A
 Frequencies --   1107.7604              1108.0398              1109.4410
 Red. masses --      1.8894                 1.8759                 1.6551
 Frc consts  --      1.3660                 1.3569                 1.2003
 IR Inten    --      4.3569                 4.1749                 2.9373

                     55                     56                     57
                      A                      A                      A
 Frequencies --   1110.8560              1110.8828              1115.9206
 Red. masses --      2.1837                 2.1987                 2.6112
 Frc consts  --      1.5876                 1.5986                 1.9159
 IR Inten    --      9.2954                 9.4866                 1.1363

                     58                     59                     60
                      A                      A                      A
 Frequencies --   1193.5349              1193.9488              1194.0024
 Red. masses --      1.1034                 1.1001                 1.1001
 Frc consts  --      0.9261                 0.9239                 0.9241
 IR Inten    --      0.0019                 0.1325                 0.1289

                     61                     62                     63
                      A                      A                      A
 Frequencies --   1219.1696              1219.4781              1220.7889
 Red. masses --      1.1475                 1.1477                 1.1473
 Frc consts  --      1.0049                 1.0056                 1.0075
 IR Inten    --      6.0393                 5.9069                 0.4971

                     64                     65                     66
                      A                      A                      A
 Frequencies --   1325.0415              1328.7533              1328.8791
 Red. masses --      3.4861                 3.4818                 3.5169
 Frc consts  --      3.6062                 3.6219                 3.6591
 IR Inten    --      2.6423                 2.4397                 2.4442

                     67                     68                     69
                      A                      A                      A
 Frequencies --   1365.1046              1365.2902              1365.7322
 Red. masses --      1.6588                 1.6536                 1.6407
 Frc consts  --      1.8213                 1.8160                 1.8031
 IR Inten    --      0.2506                 1.2200                 1.9218

                     70                     71                     72
                      A                      A                      A
 Frequencies --   1480.5483              1481.0053              1481.0547
 Red. masses --      2.1104                 2.1153                 2.1154
 Frc consts  --      2.7256                 2.7336                 2.7339
 IR Inten    --     16.6683                 6.6170                 6.5875

                     73                     74                     75
                      A                      A                      A
 Frequencies --   1531.1136              1531.5656              1531.7315
 Red. masses --      2.0155                 1.9990                 1.9974
 Frc consts  --      2.7838                 2.7626                 2.7611
 IR Inten    --      2.0755                10.1435                10.0872

                     76                     77                     78
                      A                      A                      A
 Frequencies --   1630.1955              1630.4680              1630.4969
 Red. masses --      5.1012                 5.1127                 5.1125
 Frc consts  --      7.9874                 8.0080                 8.0080
 IR Inten    --      0.3956                 0.0477                 0.0450

                     79                     80                     81
                      A                      A                      A
 Frequencies --   1646.1705              1646.2127              1647.9913
 Red. masses --      5.2717                 5.2686                 5.2815
 Frc consts  --      8.4168                 8.4123                 8.4511
 IR Inten    --      3.5058                 3.5175                 0.3198

                     82                     83                     84
                      A                      A                      A
 Frequencies --   3176.1241              3176.1404              3176.1864
 Red. masses --      1.0854                 1.0853                 1.0853
 Frc consts  --      6.4509                 6.4508                 6.4510
 IR Inten    --      2.2832                 1.8399                 1.8968

                     85                     86                     87
                      A                      A                      A
 Frequencies --   3182.6722              3182.6983              3182.7710
 Red. masses --      1.0875                 1.0875                 1.0876
 Frc consts  --      6.4902                 6.4904                 6.4912
 IR Inten    --      0.7758                 0.7331                 0.1785

                     88                     89                     90
                      A                      A                      A
 Frequencies --   3192.8637              3192.8856              3193.0091
 Red. masses --      1.0916                 1.0916                 1.0917
 Frc consts  --      6.5568                 6.5569                 6.5579
 IR Inten    --     10.2269                10.6356                47.1198

                     91                     92                     93
                      A                      A                      A
 Frequencies --   3203.9013              3203.9440              3204.3266
 Red. masses --      1.0941                 1.0941                 1.0942
 Frc consts  --      6.6168                 6.6173                 6.6195
 IR Inten    --     41.0134                41.2283                 4.6924

                     94                     95                     96
                      A                      A                      A
 Frequencies --   3210.0370              3210.1041              3210.9786
 Red. masses --      1.0957                 1.0957                 1.0957
 Frc consts  --      6.6524                 6.6523                 6.6558
 IR Inten    --     20.5943                20.0719                16.2552

 - Thermochemistry -
 -------------------
 Temperature   298.150 Kelvin.  Pressure   1.00000 Atm.
 Atom     1 has atomic number  6 and mass  12.00000

 Molecular mass:   262.09114 amu.
 Principal axes and moments of inertia in atomic units:
                           1         2         3
     Eigenvalues --  5162.565575164.175678681.40192
           X            0.99996   0.00947   0.00001
           Y           -0.00947   0.99996  -0.00001
           Z           -0.00001   0.00001   1.00000
 This molecule is an asymmetric top.
 Rotational symmetry number  1.
 Warning -- assumption of classical behavior for rotation
           may cause significant error
 Rotational temperatures (Kelvin)      0.01678     0.01677     0.00998
 Rotational constants (GHZ):           0.34958     0.34947     0.20789
 Zero-point vibrational energy     719992.5 (Joules/Mol)
                                  172.08233 (Kcal/Mol)
 Warning -- explicit consideration of  21 degrees of freedom as
           vibrations may cause significant error
 Vibrational temperatures:     33.68    35.93    56.39    76.82    76.92
          (Kelvin)            101.76   261.21   291.15   291.73   353.27
                              373.62   373.92   588.25   588.40   593.39
                              600.17   617.91   618.07   733.02   733.23
                              743.06   910.35   910.38   911.28   995.39
                             1014.61  1014.65  1024.85  1024.98  1026.43
                             1095.54  1097.67  1097.71  1246.30  1246.41
                             1250.12  1342.35  1342.44  1344.31  1404.02
                             1404.11  1406.78  1439.35  1439.38  1440.45
                             1460.87  1460.89  1461.44  1514.60  1514.69
                             1514.95  1593.82  1594.22  1596.24  1598.27
                             1598.31  1605.56  1717.23  1717.83  1717.90
                             1754.11  1754.56  1756.44  1906.44  1911.78
                             1911.96  1964.08  1964.35  1964.98  2130.18
                             2130.84  2130.91  2202.93  2203.58  2203.82
                             2345.49  2345.88  2345.92  2368.47  2368.53
                             2371.09  4569.73  4569.76  4569.82  4579.16
                             4579.19  4579.30  4593.82  4593.85  4594.03
                             4609.70  4609.76  4610.31  4618.53  4618.62
                             4619.88

 Zero-point correction=                           0.274231 (Hartree/Particle)
 Thermal correction to Energy=                    0.290145
 Thermal correction to Enthalpy=                  0.291089
 Thermal correction to Gibbs Free Energy=         0.227855
 Sum of electronic and zero-point Energies=          -1036.024006
 Sum of electronic and thermal Energies=             -1036.008092
 Sum of electronic and thermal Enthalpies=           -1036.007147
 Sum of electronic and thermal Free Energies=        -1036.070382

                     E (Thermal)             CV                S
                      KCal/Mol        Cal/Mol-Kelvin    Cal/Mol-Kelvin
 Total                  182.069             62.534            133.089
 Electronic               0.000              0.000              0.000
 Translational            0.889              2.981             42.590
 Rotational               0.889              2.981             33.803
 Vibrational            180.291             56.572             56.696
 Vibration     1          0.593              1.985              6.322
 Vibration     2          0.593              1.985              6.193
 Vibration     3          0.594              1.981              5.299
 Vibration     4          0.596              1.976              4.688
 Vibration     5          0.596              1.976              4.685
 Vibration     6          0.598              1.968              4.133
 Vibration     7          0.630              1.865              2.312
 Vibration     8          0.639              1.837              2.112
 Vibration     9          0.639              1.836              2.108
 Vibration    10          0.660              1.770              1.762
 Vibration    11          0.668              1.746              1.664
 Vibration    12          0.668              1.746              1.663
 Vibration    13          0.773              1.451              0.931
 Vibration    14          0.773              1.451              0.930
 Vibration    15          0.776              1.443              0.918
 Vibration    16          0.780              1.433              0.902
 Vibration    17          0.791              1.406              0.860
 Vibration    18          0.791              1.406              0.860
 Vibration    19          0.865              1.229              0.635
 Vibration    20          0.865              1.229              0.635
 Vibration    21          0.871              1.214              0.618

                           ! Non-Optimized Parameters !
 Normal termination of Gaussian 16 at Sun Aug 23 06:29:46 2020.
 Gaussian 16:  ES64L-G16RevA.03 25-Dec-2016

 ----------------------------------------------------------------------
 # TD(NStates=10, Root=1) B3LYP/6-31G* scf=qc volume pop=NPA density=cu
 rrent Geom=AllCheck Guess=Read
 ----------------------------------------------------------------------

 Structure from the checkpoint file:  "phosphine_1_conf23.chk"
 -------------------
 Title Card Required
 -------------------
 Charge =  0 Multiplicity = 1

                         Standard orientation:
 ---------------------------------------------------------------------
 Center     Atomic      Atomic             Coordinates (Angstroms)
 Number     Number       Type             X           Y           Z
 ---------------------------------------------------------------------
      1          6           0        1.168946    4.117783    0.651525
      2          6           0        0.392794    4.029405   -0.506055
      3          6           0        0.064106    2.780335   -1.032259
      4          6           0        0.488012    1.597829   -0.402431
      5          6           0        1.269620    1.700508    0.758461
      6          6           0        1.608725    2.951298    1.279195
      7         15           0       -0.000183   -0.000105   -1.206132
      8          6           0        1.139840   -1.221650   -0.402519
      9          6           0        0.838175   -1.950162    0.758254
     10          6           0        1.752066   -2.869137    1.278767
     11          6           0        2.982189   -3.071119    0.651031
     12          6           0        3.293530   -2.354448   -0.506412
     13          6           0        2.375909   -1.445400   -1.032428
     14          6           0       -1.627991   -0.376363   -0.402155
     15          6           0       -2.441229   -1.332833   -1.033413
     16          6           0       -3.687377   -1.672615   -0.507310
     17          6           0       -4.150907   -1.046423    0.651660
     18          6           0       -3.359434   -0.084240    1.280836
     19          6           0       -2.106620    0.247384    0.760160
     20          1           0        1.434821    5.090153    1.057851
     21          1           0        0.052438    4.932904   -1.005426
     22          1           0       -0.524215    2.719892   -1.945137
     23          1           0        1.618549    0.800526    1.255813
     24          1           0        2.217279    3.012788    2.177995
     25          1           0       -0.115675   -1.802679    1.255746
     26          1           0        1.501184   -3.427146    2.177457
     27          1           0        3.691525   -3.787479    1.057186
     28          1           0        4.246187   -2.511108   -1.005839
     29          1           0        2.617581   -0.905445   -1.945208
     30          1           0       -2.095554   -1.810640   -1.947375
     31          1           0       -4.300545   -2.417606   -1.007847
     32          1           0       -5.126002   -1.302233    1.057915
     33          1           0       -3.716130    0.410639    2.180734
     34          1           0       -1.500813    0.998093    1.258667
 ---------------------------------------------------------------------

 SCF Done:  E(RB3LYP) =  -1036.29823674     a.u. after    1 cycles

 Excitation energies and oscillator strengths:

 Excited State   1:      Singlet-A      4.5096 eV  274.93 nm  f=0.1277  <S**2>=0.000
      69 -> 70         0.69715
 This state for optimization and/or second-order correction.
 Total Energy, E(TD-HF/TD-DFT) =  -1036.13251050
 Copying the excited state density for this state as the 1-particle RhoCI density.

 Excited State   2:      Singlet-A      4.5107 eV  274.87 nm  f=0.1281  <S**2>=0.000
      69 -> 71         0.69713

 Excited State   3:      Singlet-A      4.7571 eV  260.63 nm  f=0.0022  <S**2>=0.000
      67 -> 70         0.12460
      68 -> 71         0.12486
      69 -> 72         0.67466

 Excited State   4:      Singlet-A      5.0575 eV  245.15 nm  f=0.0002  <S**2>=0.000
      66 -> 70        -0.16903
      67 -> 70         0.13479
      68 -> 71        -0.13470
      69 -> 74         0.62998

 Excited State   5:      Singlet-A      5.0580 eV  245.12 nm  f=0.0002  <S**2>=0.000
      66 -> 71        -0.16929
      67 -> 71        -0.13513
      68 -> 70        -0.13514
      69 -> 75         0.62969

 Excited State   6:      Singlet-A      5.1508 eV  240.71 nm  f=0.0085  <S**2>=0.000
      69 -> 73         0.67915

 Excited State   7:      Singlet-A      5.4274 eV  228.44 nm  f=0.0147  <S**2>=0.000
      63 -> 72        -0.16611
      64 -> 74         0.14144
      65 -> 75         0.14038
      67 -> 70         0.42184
      68 -> 71         0.41857
      69 -> 72        -0.16517

 Excited State   8:      Singlet-A      5.5141 eV  224.85 nm  f=0.0005  <S**2>=0.000
      63 -> 74         0.14407
      64 -> 71        -0.11787
      64 -> 72        -0.22261
      65 -> 70        -0.11917
      65 -> 72        -0.17421
      66 -> 70         0.22638
      67 -> 70        -0.26929
      68 -> 71         0.27427
      68 -> 72        -0.16037
      69 -> 74         0.28717

 Excited State   9:      Singlet-A      5.5146 eV  224.83 nm  f=0.0004  <S**2>=0.000
      63 -> 75         0.14427
      64 -> 70        -0.11775
      64 -> 72         0.17434
      65 -> 71         0.11747
      65 -> 72        -0.22268
      66 -> 71         0.22564
      67 -> 71         0.27088
      67 -> 72         0.16086
      68 -> 70         0.27375
      69 -> 75         0.28766

 Excited State  10:      Singlet-A      5.6181 eV  220.69 nm  f=0.0009  <S**2>=0.000
      67 -> 71        -0.48118
      68 -> 70         0.48503

 The electronic state is 1-A.
 Alpha  occ. eigenvalues --  -77.08112 -10.19447 -10.19447 -10.19446 -10.19147
 Alpha  occ. eigenvalues --  -10.19146 -10.19146 -10.19118 -10.19116 -10.19116
 Alpha  occ. eigenvalues --  -10.19032 -10.19030 -10.19030 -10.19008 -10.19007
 Alpha  occ. eigenvalues --  -10.19006 -10.18963 -10.18961 -10.18961  -6.54843
 Alpha  occ. eigenvalues --   -4.71102  -4.71102  -4.70601  -0.85559  -0.84846
 Alpha  occ. eigenvalues --   -0.84845  -0.76669  -0.74366  -0.74366  -0.74329
 Alpha  occ. eigenvalues --   -0.73821  -0.73821  -0.64436  -0.60336  -0.60307
 Alpha  occ. eigenvalues --   -0.60306  -0.59207  -0.59207  -0.55448  -0.51435
 Alpha  occ. eigenvalues --   -0.51435  -0.49295  -0.45440  -0.45439  -0.44774
 Alpha  occ. eigenvalues --   -0.44344  -0.44344  -0.44068  -0.41946  -0.41868
 Alpha  occ. eigenvalues --   -0.41868  -0.40378  -0.40377  -0.36843  -0.36352
 Alpha  occ. eigenvalues --   -0.36350  -0.35898  -0.34252  -0.34251  -0.34224
 Alpha  occ. eigenvalues --   -0.31884  -0.31883  -0.26776  -0.25448  -0.25446
 Alpha  occ. eigenvalues --   -0.25242  -0.24704  -0.24703  -0.21144
 Alpha virt. eigenvalues --   -0.01881  -0.01878  -0.00829   0.00173   0.00427
 Alpha virt. eigenvalues --    0.00430   0.06883   0.06888   0.09492   0.11039
 Alpha virt. eigenvalues --    0.11039   0.13903   0.14529   0.14529   0.15164

 Mulliken charges:
               1
     1  C   -0.133069
     2  C   -0.123472
     3  C   -0.152400
     4  C   -0.087690
     5  C   -0.159983
     6  C   -0.116120
     7  P    0.450685
     8  C   -0.100139
     9  C   -0.150342
    10  C   -0.123028
    11  C   -0.132896
    12  C   -0.116562
    13  C   -0.168043
    14  C   -0.133269
    15  C   -0.171857
    16  C   -0.123022
    17  C   -0.170188
    18  C   -0.118928
    19  C   -0.175292
    20  H    0.137424
    21  H    0.137041
    22  H    0.144095
    23  H    0.153380
    24  H    0.139603
    25  H    0.173529
    26  H    0.140609
    27  H    0.137318
    28  H    0.135501
    29  H    0.137756
    30  H    0.112248
    31  H    0.111998
    32  H    0.105806
    33  H    0.115464
    34  H    0.123841
 Sum of Mulliken charges =  -0.00000

 Dipole moment (field-independent basis, Debye):
    X=              3.6570    Y=              0.8640    Z=             -0.1966  Tot=              3.7629
 Quadrupole moment (field-independent basis, Debye-Ang):
   XX=           -119.7210   YY=           -107.3480   ZZ=           -110.6620
   XY=             -3.3127   XZ=              1.2470   YZ=             -0.5178

 Summary of Natural Population Analysis:

                                       Natural Population
                Natural  -----------------------------------------------
    Atom  No    Charge         Core      Valence    Rydberg      Total
 -----------------------------------------------------------------------
      C    1   -0.22219      1.99909     4.20860    0.01450     6.22219
      C    2   -0.24377      1.99910     4.23000    0.01467     6.24377
      C    3   -0.19851      1.99901     4.18429    0.01521     6.19851
      C    4   -0.39467      1.99889     4.37172    0.02406     6.39467
      C    5   -0.23231      1.99899     4.21654    0.01678     6.23231
      C    6   -0.22368      1.99909     4.21055    0.01404     6.22368
      P    7    1.24228      9.99750     3.70998    0.05025    13.75772
      C    8   -0.41358      1.99890     4.38869    0.02599     6.41358
      C    9   -0.20728      1.99900     4.19179    0.01650     6.20728
      C   10   -0.23595      1.99909     4.22251    0.01435     6.23595
      C   11   -0.22162      1.99909     4.20798    0.01455     6.22162
      C   12   -0.23157      1.99910     4.21824    0.01423     6.23157
      C   13   -0.22141      1.99902     4.20674    0.01565     6.22141
      C   14   -0.48842      1.99886     4.46411    0.02545     6.48842
      C   15   -0.23440      1.99901     4.21902    0.01636     6.23440
      C   16   -0.24526      1.99910     4.23110    0.01506     6.24526
      C   17   -0.30075      1.99910     4.28487    0.01679     6.30075
      C   18   -0.23045      1.99909     4.21674    0.01462     6.23045
      C   19   -0.26326      1.99899     4.24617    0.01810     6.26326
      H   20    0.23838      0.00000     0.76077    0.00085     0.76162
      H   21    0.24082      0.00000     0.75831    0.00087     0.75918
      H   22    0.24038      0.00000     0.75837    0.00125     0.75962
      H   23    0.24906      0.00000     0.74969    0.00125     0.75094
      H   24    0.24222      0.00000     0.75691    0.00087     0.75778
      H   25    0.25985      0.00000     0.73878    0.00137     0.74015
      H   26    0.24284      0.00000     0.75629    0.00088     0.75716
      H   27    0.23823      0.00000     0.76090    0.00087     0.76177
      H   28    0.23940      0.00000     0.75966    0.00094     0.76060
      H   29    0.23562      0.00000     0.76329    0.00109     0.76438
      H   30    0.22315      0.00000     0.77586    0.00099     0.77685
      H   31    0.22885      0.00000     0.77024    0.00091     0.77115
      H   32    0.22465      0.00000     0.77445    0.00089     0.77535
      H   33    0.23111      0.00000     0.76802    0.00088     0.76889
      H   34    0.23226      0.00000     0.76623    0.00151     0.76774
 =======================================================================
   * Total *   -0.00000     45.98001    91.64739    0.37260   138.00000

 Normal termination of Gaussian 16 at Sun Aug 23 06:41:36 2020.
