 Gaussian 16, Revision A.03,

 ---------------------------------
 # opt=CalcAll B3LYP/6-31G* scf=qc
 ---------------------------------

 -------------------
 Title Card Required
 -------------------
 Symbolic Z-matrix:
 Charge =  0 Multiplicity = 1

 SCF Done:  E(RB3LYP) =  -844.558376065     a.u. after    8 cycles
 SCF Done:  E(RB3LYP) =  -844.561875592     a.u. after   13 cycles
 SCF Done:  E(RB3LYP) =  -844.563097149     a.u. after   17 cycles
 SCF Done:  E(RB3LYP) =  -844.564180153     a.u. after   17 cycles
 SCF Done:  E(RB3LYP) =  -844.564309422     a.u. after   11 cycles
 SCF Done:  E(RB3LYP) =  -844.564327736     a.u. after    9 cycles
 SCF Done:  E(RB3LYP) =  -844.564329542     a.u. after    5 cycles
 SCF Done:  E(RB3LYP) =  -844.564329552     a.u. after    2 cycles
 Optimization completed.
    -- Stationary point found.
 Normal termination of Gaussian 16 at Sun Aug 23 10:50:14 2020.

 ----------------------------------------------------------------------
 # freq B3LYP/6-31G* scf=qc volume NMR pop=NPA density=current Geom=All
 Check Guess=Read
 ----------------------------------------------------------------------

 Structure from the checkpoint file:  "phosphine_3_conf12.chk"
 -------------------
 Title Card Required
 -------------------
 Charge =  0 Multiplicity = 1

 SCF Done:  E(RB3LYP) =  -844.564329552     a.u. after    1 cycles

      1  C    Isotropic =   173.0269   Anisotropy =    19.3228

      2  H    Isotropic =    30.7061   Anisotropy =     7.2637

      3  H    Isotropic =    30.7450   Anisotropy =    10.5216

      4  H    Isotropic =    31.0013   Anisotropy =     8.5260

      5  P    Isotropic =   385.0662   Anisotropy =    60.2382

      6  C    Isotropic =    52.7850   Anisotropy =   183.2124

      7  C    Isotropic =    67.9807   Anisotropy =   167.4337

      8  C    Isotropic =    68.8484   Anisotropy =   164.0550

      9  C    Isotropic =    69.4152   Anisotropy =   165.2688

     10  C    Isotropic =    68.8100   Anisotropy =   164.5512

     11  C    Isotropic =    62.6088   Anisotropy =   166.8370

     12  C    Isotropic =    51.8727   Anisotropy =   182.8414

     13  C    Isotropic =    62.8759   Anisotropy =   171.1462

     14  C    Isotropic =    68.2788   Anisotropy =   164.2395

     15  C    Isotropic =    67.5045   Anisotropy =   168.3027

     16  C    Isotropic =    69.1693   Anisotropy =   163.2076

     17  C    Isotropic =    60.5028   Anisotropy =   159.8405

     18  H    Isotropic =    24.8796   Anisotropy =     9.9840

     19  H    Isotropic =    24.9266   Anisotropy =     4.8985

     20  H    Isotropic =    25.0797   Anisotropy =     3.7302

     21  H    Isotropic =    25.0471   Anisotropy =     4.9719

     22  H    Isotropic =    24.9784   Anisotropy =    10.0497

     23  H    Isotropic =    25.1713   Anisotropy =    11.3345

     24  H    Isotropic =    25.0793   Anisotropy =     5.9085

     25  H    Isotropic =    25.0152   Anisotropy =     3.8947

     26  H    Isotropic =    24.9615   Anisotropy =     4.4623

     27  H    Isotropic =    24.4815   Anisotropy =     7.9895

  Exact polarizability: 201.371  -1.860 138.247  20.883  -1.677 117.932
 Approx polarizability: 285.404  -3.890 225.347  48.289  -5.087 209.287

                      1                      2                      3
                      A                      A                      A
 Frequencies --     19.6197                29.9456                55.9326
 Red. masses --      3.7892                 3.8336                 5.0670
 Frc consts  --      0.0009                 0.0020                 0.0093
 IR Inten    --      0.2498                 0.0669                 0.0709

                      4                      5                      6
                      A                      A                      A
 Frequencies --    117.5917               178.5710               186.9064
 Red. masses --      3.3695                 3.4621                 3.6222
 Frc consts  --      0.0275                 0.0650                 0.0746
 IR Inten    --      0.5134                 0.7299                 0.2036

                      7                      8                      9
                      A                      A                      A
 Frequencies --    233.3595               246.3735               267.1359
 Red. masses --      1.8305                 1.6577                 3.6660
 Frc consts  --      0.0587                 0.0593                 0.1541
 IR Inten    --      0.4880                 0.3057                 0.1573

                     10                     11                     12
                      A                      A                      A
 Frequencies --    323.1965               396.5553               408.1598
 Red. masses --      4.4978                 5.9071                 3.1694
 Frc consts  --      0.2768                 0.5473                 0.3111
 IR Inten    --      2.2787                 2.7494                 2.8893

                     13                     14                     15
                      A                      A                      A
 Frequencies --    412.6968               419.7848               488.2616
 Red. masses --      3.0645                 6.9776                 3.5147
 Frc consts  --      0.3075                 0.7244                 0.4937
 IR Inten    --      0.6199                 8.2596                10.4566

                     16                     17                     18
                      A                      A                      A
 Frequencies --    515.9387               632.6624               633.0551
 Red. masses --      3.9374                 6.4093                 6.4011
 Frc consts  --      0.6175                 1.5115                 1.5114
 IR Inten    --     12.4259                 0.1769                 0.0925

                     19                     20                     21
                      A                      A                      A
 Frequencies --    674.2190               702.6904               705.0749
 Red. masses --      5.3392                 6.1933                 4.9260
 Frc consts  --      1.4300                 1.8018                 1.4428
 IR Inten    --      8.3430                 0.9826                 3.2527

                     22                     23                     24
                      A                      A                      A
 Frequencies --    712.0428               713.7104               757.4314
 Red. masses --      2.2697                 2.0649                 1.5778
 Frc consts  --      0.6780                 0.6197                 0.5333
 IR Inten    --     20.8416                26.9197                35.5782

                     25                     26                     27
                      A                      A                      A
 Frequencies --    763.0343               861.1783               867.3756
 Red. masses --      1.7189                 1.2514                 1.2452
 Frc consts  --      0.5896                 0.5468                 0.5520
 IR Inten    --     13.6413                 0.1853                 0.0194

                     28                     29                     30
                      A                      A                      A
 Frequencies --    910.2612               919.8464               922.6452
 Red. masses --      1.3086                 1.2937                 1.3544
 Frc consts  --      0.6388                 0.6449                 0.6793
 IR Inten    --     24.9473                28.4055                 1.4331

                     31                     32                     33
                      A                      A                      A
 Frequencies --    936.7011               969.7247               977.1885
 Red. masses --      1.3619                 1.3597                 1.3601
 Frc consts  --      0.7040                 0.7534                 0.7652
 IR Inten    --      4.6150                 0.0625                 0.1022

                     34                     35                     36
                      A                      A                      A
 Frequencies --    996.8330              1001.2397              1015.2377
 Red. masses --      1.2506                 1.2591                 6.2349
 Frc consts  --      0.7322                 0.7437                 3.7863
 IR Inten    --      0.1419                 0.0537                 1.2334

                     37                     38                     39
                      A                      A                      A
 Frequencies --   1015.9830              1052.1452              1054.4491
 Red. masses --      6.2492                 3.2219                 3.1934
 Frc consts  --      3.8006                 2.1014                 2.0920
 IR Inten    --      2.5449                 1.0729                 1.1873

                     40                     41                     42
                      A                      A                      A
 Frequencies --   1106.2648              1112.2019              1113.0509
 Red. masses --      1.7291                 1.7331                 2.4352
 Frc consts  --      1.2468                 1.2631                 1.7775
 IR Inten    --      1.6960                 2.3935                13.3487

                     43                     44                     45
                      A                      A                      A
 Frequencies --   1117.9836              1193.4830              1194.2036
 Red. masses --      2.5275                 1.1026                 1.0987
 Frc consts  --      1.8613                 0.9254                 0.9232
 IR Inten    --      2.1457                 0.0064                 0.0647

                     46                     47                     48
                      A                      A                      A
 Frequencies --   1216.9019              1223.4377              1323.7489
 Red. masses --      1.1444                 1.1502                 3.2577
 Frc consts  --      0.9985                 1.0144                 3.3633
 IR Inten    --      3.9171                 0.6687                 2.3594

                     49                     50                     51
                      A                      A                      A
 Frequencies --   1331.6639              1351.3857              1363.1531
 Red. masses --      3.3536                 1.2958                 1.7088
 Frc consts  --      3.5039                 1.3943                 1.8709
 IR Inten    --      2.8866                 2.1901                 1.4904

                     52                     53                     54
                      A                      A                      A
 Frequencies --   1371.5876              1479.5011              1482.4650
 Red. masses --      1.5137                 2.0991                 2.0753
 Frc consts  --      1.6778                 2.7071                 2.6872
 IR Inten    --      2.1494                12.2419                 5.4971

                     55                     56                     57
                      A                      A                      A
 Frequencies --   1501.1055              1502.2148              1530.8719
 Red. masses --      1.0620                 1.0627                 2.0236
 Frc consts  --      1.4100                 1.4129                 2.7942
 IR Inten    --      4.2302                16.6844                 4.9276

                     58                     59                     60
                      A                      A                      A
 Frequencies --   1534.8457              1630.0413              1632.4689
 Red. masses --      1.9731                 5.0202                 5.1791
 Frc consts  --      2.7386                 7.8591                 8.1320
 IR Inten    --      6.4930                 1.1117                 0.2828

                     61                     62                     63
                      A                      A                      A
 Frequencies --   1646.7280              1649.4768              3049.4931
 Red. masses --      5.3166                 5.2603                 1.0329
 Frc consts  --      8.4944                 8.4325                 5.6592
 IR Inten    --      1.7929                 3.4210                12.5529

                     64                     65                     66
                      A                      A                      A
 Frequencies --   3131.3167              3138.0860              3174.8860
 Red. masses --      1.1045                 1.1020                 1.0855
 Frc consts  --      6.3805                 6.3940                 6.4465
 IR Inten    --     12.2636                 8.6853                 3.7837

                     67                     68                     69
                      A                      A                      A
 Frequencies --   3176.3242              3181.6231              3182.0210
 Red. masses --      1.0847                 1.0871                 1.0872
 Frc consts  --      6.4480                 6.4835                 6.4859
 IR Inten    --      1.4524                 0.5363                 0.2229

                     70                     71                     72
                      A                      A                      A
 Frequencies --   3190.9781              3192.1192              3198.2193
 Red. masses --      1.0907                 1.0916                 1.0939
 Frc consts  --      6.5432                 6.5537                 6.5927
 IR Inten    --      9.6873                21.0380                33.3544

                     73                     74                     75
                      A                      A                      A
 Frequencies --   3203.7063              3207.1130              3210.5982
 Red. masses --      1.0936                 1.0979                 1.0954
 Frc consts  --      6.6134                 6.6536                 6.6527
 IR Inten    --     34.2026                31.3314                18.4824

 - Thermochemistry -
 -------------------
 Temperature   298.150 Kelvin.  Pressure   1.00000 Atm.
 Atom     1 has atomic number  6 and mass  12.00000

 Molecular mass:   200.07549 amu.
 Principal axes and moments of inertia in atomic units:
                           1         2         3
     Eigenvalues --  1569.834284673.894205299.55185
           X            0.99999  -0.00071   0.00536
           Y            0.00047   0.99898   0.04506
           Z           -0.00538  -0.04506   0.99897
 This molecule is an asymmetric top.
 Rotational symmetry number  1.
 Warning -- assumption of classical behavior for rotation
           may cause significant error
 Rotational temperatures (Kelvin)      0.05517     0.01853     0.01634
 Rotational constants (GHZ):           1.14964     0.38613     0.34055
 Zero-point vibrational energy     579830.1 (Joules/Mol)
                                  138.58273 (Kcal/Mol)
 Warning -- explicit consideration of  16 degrees of freedom as
           vibrations may cause significant error
 Vibrational temperatures:     28.23    43.09    80.47   169.19   256.92
          (Kelvin)            268.92   335.75   354.48   384.35   465.01
                              570.55   587.25   593.78   603.98   702.50
                              742.32   910.26   910.83   970.05  1011.01
                             1014.45  1024.47  1026.87  1089.77  1097.84
                             1239.04  1247.96  1309.66  1323.45  1327.48
                             1347.70  1395.22  1405.96  1434.22  1440.56
                             1460.70  1461.77  1513.80  1517.12  1591.67
                             1600.21  1601.43  1608.53  1717.16  1718.19
                             1750.85  1760.25  1904.58  1915.97  1944.34
                             1961.27  1973.41  2128.67  2132.94  2159.76
                             2161.35  2202.58  2208.30  2345.27  2348.76
                             2369.27  2373.23  4387.54  4505.27  4515.01
                             4567.95  4570.02  4577.65  4578.22  4591.11
                             4592.75  4601.52  4609.42  4614.32  4619.33

 Zero-point correction=                           0.220846 (Hartree/Particle)
 Thermal correction to Energy=                    0.233542
 Thermal correction to Enthalpy=                  0.234486
 Thermal correction to Gibbs Free Energy=         0.179768
 Sum of electronic and zero-point Energies=           -844.343484
 Sum of electronic and thermal Energies=              -844.330788
 Sum of electronic and thermal Enthalpies=            -844.329844
 Sum of electronic and thermal Free Energies=         -844.384562

                     E (Thermal)             CV                S
                      KCal/Mol        Cal/Mol-Kelvin    Cal/Mol-Kelvin
 Total                  146.550             49.332            115.164
 Electronic               0.000              0.000              0.000
 Translational            0.889              2.981             41.785
 Rotational               0.889              2.981             32.031
 Vibrational            144.772             43.370             41.348
 Vibration     1          0.593              1.986              6.672
 Vibration     2          0.594              1.984              5.833
 Vibration     3          0.596              1.975              4.596
 Vibration     4          0.608              1.935              3.140
 Vibration     5          0.629              1.869              2.343
 Vibration     6          0.632              1.858              2.258
 Vibration     7          0.654              1.790              1.853
 Vibration     8          0.661              1.769              1.756
 Vibration     9          0.672              1.733              1.615
 Vibration    10          0.708              1.629              1.294
 Vibration    11          0.763              1.478              0.975
 Vibration    12          0.773              1.453              0.933
 Vibration    13          0.776              1.443              0.917
 Vibration    14          0.782              1.427              0.893
 Vibration    15          0.844              1.276              0.688
 Vibration    16          0.871              1.215              0.619

 Optimization completed.
    -- Stationary point found.
 Normal termination of Gaussian 16 at Sun Aug 23 10:56:24 2020.
 Gaussian 16:  ES64L-G16RevA.03 25-Dec-2016

 ----------------------------------------------------------------------
 # TD(NStates=10, Root=1) B3LYP/6-31G* scf=qc volume pop=NPA density=cu
 rrent Geom=AllCheck Guess=Read
 ----------------------------------------------------------------------

 Structure from the checkpoint file:  "phosphine_3_conf13.chk"
 -------------------
 Title Card Required
 -------------------
 Charge =  0 Multiplicity = 1

                         Standard orientation:
 ---------------------------------------------------------------------
 Center     Atomic      Atomic             Coordinates (Angstroms)
 Number     Number       Type             X           Y           Z
 ---------------------------------------------------------------------
      1          6           0       -0.056438    2.585684    0.714113
      2          1           0        0.004355    2.109097    1.698524
      3          1           0        0.766661    3.299819    0.606064
      4          1           0       -0.994431    3.146713    0.656809
      5         15           0       -0.036647    1.368885   -0.701817
      6          6           0        1.434521    0.318934   -0.299745
      7          6           0        2.400233    0.658165    0.659477
      8          6           0        3.530378   -0.141637    0.852704
      9          6           0        3.712837   -1.296837    0.094207
     10          6           0        2.760424   -1.646046   -0.867279
     11          6           0        1.640457   -0.842301   -1.066856
     12          6           0       -1.438404    0.263201   -0.190230
     13          6           0       -1.386565   -0.597618    0.918095
     14          6           0       -2.489596   -1.376797    1.265738
     15          6           0       -3.664280   -1.306872    0.511696
     16          6           0       -3.728517   -0.458189   -0.593412
     17          6           0       -2.620342    0.317075   -0.943537
     18          1           0        2.280342    1.550213    1.266676
     19          1           0        4.265899    0.140648    1.601925
     20          1           0        4.590719   -1.919095    0.246305
     21          1           0        2.894049   -2.543180   -1.466411
     22          1           0        0.911773   -1.121060   -1.824858
     23          1           0       -0.474456   -0.665681    1.505233
     24          1           0       -2.433455   -2.040379    2.125105
     25          1           0       -4.522833   -1.915740    0.783002
     26          1           0       -4.636931   -0.403569   -1.187878
     27          1           0       -2.670229    0.968372   -1.813061
 ---------------------------------------------------------------------

 SCF Done:  E(RB3LYP) =  -844.564329552     a.u. after    1 cycles

 Excitation energies and oscillator strengths:

 Excited State   1:      Singlet-A      4.6036 eV  269.32 nm  f=0.0434  <S**2>=0.000
      53 -> 54         0.68727
      53 -> 55        -0.11724
 This state for optimization and/or second-order correction.
 Total Energy, E(TD-HF/TD-DFT) =  -844.395149268
 Copying the excited state density for this state as the 1-particle RhoCI density.

 Excited State   2:      Singlet-A      4.8958 eV  253.25 nm  f=0.0129  <S**2>=0.000
      51 -> 55         0.10644
      52 -> 54         0.13678
      52 -> 55         0.11098
      53 -> 55        -0.22417
      53 -> 56         0.62611

 Excited State   3:      Singlet-A      5.0081 eV  247.57 nm  f=0.1456  <S**2>=0.000
      53 -> 54         0.10788
      53 -> 55         0.61703
      53 -> 56         0.20005
      53 -> 57        -0.18849

 Excited State   4:      Singlet-A      5.1447 eV  240.99 nm  f=0.0380  <S**2>=0.000
      50 -> 55         0.12105
      51 -> 54        -0.20875
      52 -> 55        -0.13432
      52 -> 56        -0.10059
      53 -> 55         0.16894
      53 -> 56         0.12466
      53 -> 57         0.59536

 Excited State   5:      Singlet-A      5.4213 eV  228.70 nm  f=0.0047  <S**2>=0.000
      50 -> 55        -0.19258
      50 -> 56         0.26444
      50 -> 57         0.20848
      51 -> 54         0.36844
      51 -> 55        -0.15837
      52 -> 54        -0.31093
      52 -> 56         0.15547
      52 -> 57         0.12168
      53 -> 56         0.12021
      53 -> 57         0.16389

 Excited State   6:      Singlet-A      5.7386 eV  216.05 nm  f=0.0117  <S**2>=0.000
      49 -> 56        -0.20544
      49 -> 57         0.15886
      50 -> 54        -0.15939
      51 -> 54         0.32347
      52 -> 54         0.48568
      53 -> 57         0.18573

 Excited State   7:      Singlet-A      5.8269 eV  212.78 nm  f=0.0124  <S**2>=0.000
      49 -> 56        -0.24869
      49 -> 57         0.18029
      51 -> 54        -0.14158
      51 -> 55         0.13179
      51 -> 56         0.11201
      52 -> 54        -0.18629
      52 -> 55         0.51477
      53 -> 57         0.14843

 Excited State   8:      Singlet-A      5.8571 eV  211.68 nm  f=0.0221  <S**2>=0.000
      49 -> 54         0.18068
      49 -> 56         0.10095
      50 -> 54         0.46234
      50 -> 55         0.34293
      50 -> 56         0.16425
      51 -> 56        -0.10994
      52 -> 54         0.14547
      52 -> 56         0.19499

 Excited State   9:      Singlet-A      5.9281 eV  209.15 nm  f=0.0005  <S**2>=0.000
      50 -> 54         0.16609
      51 -> 54         0.20615
      51 -> 55         0.57166
      51 -> 56         0.12197
      52 -> 55        -0.21539
      52 -> 56        -0.13296

 Excited State  10:      Singlet-A      5.9923 eV  206.90 nm  f=0.0264  <S**2>=0.000
      49 -> 54        -0.31179
      50 -> 54        -0.20305
      50 -> 55         0.45955
      50 -> 56         0.17144
      51 -> 54         0.13477
      51 -> 56         0.16777
      52 -> 55         0.12302
      52 -> 56        -0.14924

 The electronic state is 1-A.
 Alpha  occ. eigenvalues --  -77.07968 -10.19393 -10.19299 -10.19192 -10.19094
 Alpha  occ. eigenvalues --  -10.19069 -10.19058 -10.19012 -10.19002 -10.18964
 Alpha  occ. eigenvalues --  -10.18942 -10.18899 -10.18857 -10.18421  -6.54710
 Alpha  occ. eigenvalues --   -4.70976  -4.70963  -4.70459  -0.85270  -0.84774
 Alpha  occ. eigenvalues --   -0.76468  -0.74321  -0.74255  -0.73797  -0.70921
 Alpha  occ. eigenvalues --   -0.62338  -0.60252  -0.59977  -0.59281  -0.55060
 Alpha  occ. eigenvalues --   -0.51448  -0.49651  -0.45409  -0.44650  -0.44597
 Alpha  occ. eigenvalues --   -0.44242  -0.42401  -0.42079  -0.41684  -0.41109
 Alpha  occ. eigenvalues --   -0.38955  -0.37870  -0.36382  -0.36120  -0.34369
 Alpha  occ. eigenvalues --   -0.34240  -0.32560  -0.31576  -0.26446  -0.25180
 Alpha  occ. eigenvalues --   -0.25018  -0.24725  -0.21380
 Alpha virt. eigenvalues --   -0.01530  -0.00807  -0.00419   0.00541   0.06283
 Alpha virt. eigenvalues --    0.07175   0.09234   0.10908   0.12717   0.13594
 Alpha virt. eigenvalues --    0.14142   0.14682   0.15148   0.15528   0.16193

 Mulliken charges:
               1
     1  C   -0.640360
     2  H    0.215667
     3  H    0.161058
     4  H    0.203723
     5  P    0.507438
     6  C   -0.067090
     7  C   -0.159612
     8  C   -0.112995
     9  C   -0.121492
    10  C   -0.115322
    11  C   -0.143113
    12  C   -0.150305
    13  C   -0.192328
    14  C   -0.109905
    15  C   -0.192796
    16  C   -0.134765
    17  C   -0.175813
    18  H    0.148058
    19  H    0.149084
    20  H    0.153126
    21  H    0.152415
    22  H    0.168971
    23  H    0.087315
    24  H    0.100156
    25  H    0.085477
    26  H    0.093453
    27  H    0.089952
 Sum of Mulliken charges =  -0.00000

 Dipole moment (field-independent basis, Debye):
    X=              7.0115    Y=              2.3413    Z=             -0.4366  Tot=              7.4049
 Quadrupole moment (field-independent basis, Debye-Ang):
   XX=            -91.9203   YY=            -83.0679   ZZ=            -86.8641
   XY=             -6.4531   XZ=              4.1101   YZ=              1.5637

 Summary of Natural Population Analysis:

                                       Natural Population
                Natural  -----------------------------------------------
    Atom  No    Charge         Core      Valence    Rydberg      Total
 -----------------------------------------------------------------------
      C    1   -1.03465      1.99946     5.02408    0.01111     7.03465
      H    2    0.27675      0.00000     0.72216    0.00109     0.72325
      H    3    0.23976      0.00000     0.75841    0.00183     0.76024
      H    4    0.27449      0.00000     0.72482    0.00069     0.72551
      P    5    1.26000      9.99755     3.69256    0.04989    13.74000
      C    6   -0.37066      1.99892     4.34850    0.02324     6.37066
      C    7   -0.21164      1.99900     4.19728    0.01535     6.21164
      C    8   -0.22552      1.99910     4.21219    0.01424     6.22552
      C    9   -0.19001      1.99909     4.17686    0.01406     6.19001
      C   10   -0.23275      1.99910     4.21947    0.01417     6.23275
      C   11   -0.18254      1.99902     4.16712    0.01640     6.18254
      C   12   -0.53826      1.99883     4.51452    0.02492     6.53826
      C   13   -0.30985      1.99898     4.29110    0.01977     6.30985
      C   14   -0.21948      1.99908     4.20594    0.01445     6.21948
      C   15   -0.34755      1.99910     4.33066    0.01779     6.34755
      C   16   -0.26954      1.99910     4.25450    0.01594     6.26954
      C   17   -0.23974      1.99902     4.22466    0.01606     6.23974
      H   18    0.24187      0.00000     0.75690    0.00123     0.75813
      H   19    0.24608      0.00000     0.75308    0.00083     0.75392
      H   20    0.24449      0.00000     0.75472    0.00079     0.75551
      H   21    0.24842      0.00000     0.75080    0.00078     0.75158
      H   22    0.25532      0.00000     0.74309    0.00159     0.74468
      H   23    0.21297      0.00000     0.78597    0.00106     0.78703
      H   24    0.22423      0.00000     0.77491    0.00086     0.77577
      H   25    0.21567      0.00000     0.78356    0.00078     0.78433
      H   26    0.22041      0.00000     0.77873    0.00086     0.77959
      H   27    0.21173      0.00000     0.78754    0.00073     0.78827
 =======================================================================
   * Total *   -0.00000     35.98536    69.73413    0.28052   106.00000

 Normal termination of Gaussian 16 at Sun Aug 23 11:04:15 2020.
