 Gaussian 16, Revision A.03,

 ---------------------------------
 # opt=CalcAll B3LYP/6-31G* scf=qc
 ---------------------------------

 -------------------
 Title Card Required
 -------------------
 Symbolic Z-matrix:
 Charge =  0 Multiplicity = 1

 SCF Done:  E(RB3LYP) =  -1333.98872927     a.u. after    7 cycles
 SCF Done:  E(RB3LYP) =  -1333.99778692     a.u. after   15 cycles
 SCF Done:  E(RB3LYP) =  -1333.99883400     a.u. after   15 cycles
 SCF Done:  E(RB3LYP) =  -1333.99895201     a.u. after   15 cycles
 SCF Done:  E(RB3LYP) =  -1333.99897588     a.u. after    9 cycles
 SCF Done:  E(RB3LYP) =  -1333.99897766     a.u. after    3 cycles
 SCF Done:  E(RB3LYP) =  -1333.99897470     a.u. after    2 cycles
 SCF Done:  E(RB3LYP) =  -1333.99897451     a.u. after    2 cycles
 SCF Done:  E(RB3LYP) =  -1333.99897315     a.u. after    2 cycles
 SCF Done:  E(RB3LYP) =  -1333.99897812     a.u. after    2 cycles
 SCF Done:  E(RB3LYP) =  -1333.99897501     a.u. after    2 cycles
 SCF Done:  E(RB3LYP) =  -1333.99898010     a.u. after    2 cycles
 SCF Done:  E(RB3LYP) =  -1333.99898010     a.u. after    2 cycles
 SCF Done:  E(RB3LYP) =  -1333.99897427     a.u. after    2 cycles
 SCF Done:  E(RB3LYP) =  -1333.99897543     a.u. after    3 cycles
 SCF Done:  E(RB3LYP) =  -1333.99897539     a.u. after    2 cycles
 SCF Done:  E(RB3LYP) =  -1333.99897542     a.u. after    2 cycles
 SCF Done:  E(RB3LYP) =  -1333.99897611     a.u. after    2 cycles
 Optimization completed.
    -- Stationary point found.
 Normal termination of Gaussian 16 at Sun Aug 23 16:04:48 2020.

 ----------------------------------------------------------------------
 # freq B3LYP/6-31G* scf=qc volume NMR pop=NPA density=current Geom=All
 Check Guess=Read
 ----------------------------------------------------------------------

 Structure from the checkpoint file:  "phosphine_5_conf212.chk"
 -------------------
 Title Card Required
 -------------------
 Charge =  0 Multiplicity = 1

 SCF Done:  E(RB3LYP) =  -1333.99897611     a.u. after    1 cycles

      1  C    Isotropic =    80.0615   Anisotropy =   136.7312

      2  C    Isotropic =    60.6884   Anisotropy =   171.9422

      3  C    Isotropic =    61.6675   Anisotropy =   173.4720

      4  C    Isotropic =    59.0062   Anisotropy =   162.7770

      5  C    Isotropic =    79.9326   Anisotropy =   137.4237

      6  C    Isotropic =    32.6639   Anisotropy =    98.8318

      7  F    Isotropic =   295.7855   Anisotropy =   113.0799

      8  P    Isotropic =   366.1300   Anisotropy =    39.7424

      9  C    Isotropic =    61.5992   Anisotropy =   173.5258

     10  C    Isotropic =    60.6774   Anisotropy =   171.8931

     11  C    Isotropic =    80.0700   Anisotropy =   136.7162

     12  C    Isotropic =    32.6524   Anisotropy =    98.8409

     13  C    Isotropic =    79.9191   Anisotropy =   137.4250

     14  C    Isotropic =    59.0041   Anisotropy =   162.7394

     15  F    Isotropic =   295.7730   Anisotropy =   113.1085

     16  C    Isotropic =    61.5772   Anisotropy =   173.5388

     17  C    Isotropic =    59.0957   Anisotropy =   162.8230

     18  C    Isotropic =    79.9441   Anisotropy =   137.4523

     19  C    Isotropic =    32.6816   Anisotropy =    98.7847

     20  C    Isotropic =    80.0836   Anisotropy =   136.7455

     21  C    Isotropic =    60.7753   Anisotropy =   171.8334

     22  F    Isotropic =   295.8237   Anisotropy =   112.9090

     23  H    Isotropic =    25.4630   Anisotropy =     5.7381

     24  H    Isotropic =    25.3569   Anisotropy =    12.0162

     25  H    Isotropic =    24.6171   Anisotropy =     8.9155

     26  H    Isotropic =    25.3584   Anisotropy =     4.2556

     27  H    Isotropic =    25.3615   Anisotropy =    12.0012

     28  H    Isotropic =    25.4675   Anisotropy =     5.7331

     29  H    Isotropic =    25.3567   Anisotropy =     4.2612

     30  H    Isotropic =    24.6161   Anisotropy =     8.9132

     31  H    Isotropic =    24.6242   Anisotropy =     8.9342

     32  H    Isotropic =    25.3616   Anisotropy =     4.2555

     33  H    Isotropic =    25.4670   Anisotropy =     5.7395

     34  H    Isotropic =    25.3691   Anisotropy =    12.0392

  Exact polarizability: 226.327  -0.157 225.948   0.068  -0.177 167.784
 Approx polarizability: 338.074  -0.347 337.382   0.146  -0.403 314.996

                      1                      2                      3
                      A                      A                      A
 Frequencies --     23.3210                24.6944                37.4391
 Red. masses --      4.0639                 4.0923                 8.9499
 Frc consts  --      0.0013                 0.0015                 0.0074
 IR Inten    --      0.2485                 0.2567                 0.1024

                      4                      5                      6
                      A                      A                      A
 Frequencies --     37.5757                40.4142                50.6266
 Red. masses --      9.0430                 3.7405                 9.9518
 Frc consts  --      0.0075                 0.0036                 0.0150
 IR Inten    --      0.0914                 0.0054                 0.1145

                      7                      8                      9
                      A                      A                      A
 Frequencies --    132.9976               145.4762               145.8141
 Red. masses --      8.0544                 8.3706                 8.3749
 Frc consts  --      0.0839                 0.1044                 0.1049
 IR Inten    --      0.0235                 0.5212                 0.5140

                     10                     11                     12
                      A                      A                      A
 Frequencies --    209.0215               218.8416               219.5487
 Red. masses --      8.0489                 6.9852                 6.9954
 Frc consts  --      0.2072                 0.1971                 0.1987
 IR Inten    --      0.2900                 0.5294                 0.5283

                     13                     14                     15
                      A                      A                      A
 Frequencies --    307.9459               335.9891               336.1235
 Red. masses --      8.4307                 8.3162                 8.3051
 Frc consts  --      0.4710                 0.5531                 0.5528
 IR Inten    --      1.0312                 0.0453                 0.0431

                     16                     17                     18
                      A                      A                      A
 Frequencies --    397.1521               404.0992               404.1885
 Red. masses --      7.7408                 8.0349                 8.0145
 Frc consts  --      0.7194                 0.7730                 0.7714
 IR Inten    --      0.3038                10.1031                10.1117

                     19                     20                     21
                      A                      A                      A
 Frequencies --    420.6518               420.7647               424.7477
 Red. masses --      3.2851                 3.2761                 3.1355
 Frc consts  --      0.3425                 0.3417                 0.3333
 IR Inten    --      1.1606                 1.0832                 0.0240

                     22                     23                     24
                      A                      A                      A
 Frequencies --    434.9871               435.2582               463.5983
 Red. masses --      6.1421                 6.1534                 6.6460
 Frc consts  --      0.6847                 0.6868                 0.8416
 IR Inten    --     18.8897                19.0803                 7.4008

                     25                     26                     27
                      A                      A                      A
 Frequencies --    533.0060               533.1742               535.5647
 Red. masses --      2.8108                 2.8121                 2.9070
 Frc consts  --      0.4705                 0.4710                 0.4913
 IR Inten    --     21.9107                21.8334                13.4844

                     28                     29                     30
                      A                      A                      A
 Frequencies --    608.0733               629.9980               630.0553
 Red. masses --      7.9091                 7.8314                 7.8283
 Frc consts  --      1.7230                 1.8313                 1.8309
 IR Inten    --      0.0096                 0.0363                 0.0394

                     31                     32                     33
                      A                      A                      A
 Frequencies --    648.2433               648.3760               648.4601
 Red. masses --      7.2770                 7.3786                 7.3813
 Frc consts  --      1.8017                 1.8276                 1.8287
 IR Inten    --      0.0048                 0.1273                 0.1302

                     34                     35                     36
                      A                      A                      A
 Frequencies --    715.1437               715.6481               715.7283
 Red. masses --      4.8099                 4.8250                 4.8308
 Frc consts  --      1.4494                 1.4559                 1.4580
 IR Inten    --      1.0870                 3.9263                 3.9461

                     37                     38                     39
                      A                      A                      A
 Frequencies --    835.7401               835.8268               836.8445
 Red. masses --      1.2630                 1.2620                 1.3271
 Frc consts  --      0.5197                 0.5194                 0.5476
 IR Inten    --      0.5293                 0.4643                11.3365

                     40                     41                     42
                      A                      A                      A
 Frequencies --    839.5429               839.5689               839.8172
 Red. masses --      3.2697                 3.2675                 4.0294
 Frc consts  --      1.3578                 1.3570                 1.6744
 IR Inten    --     62.1230                61.4532                18.3508

                     43                     44                     45
                      A                      A                      A
 Frequencies --    843.6516               843.7852               844.1091
 Red. masses --      2.0029                 1.9689                 1.6772
 Frc consts  --      0.8399                 0.8259                 0.7041
 IR Inten    --      9.9700                10.2740                12.0904

                     46                     47                     48
                      A                      A                      A
 Frequencies --    958.6482               958.7527               959.8645
 Red. masses --      1.2560                 1.2560                 1.2588
 Frc consts  --      0.6801                 0.6802                 0.6833
 IR Inten    --      0.1682                 0.1640                 0.3316

                     49                     50                     51
                      A                      A                      A
 Frequencies --    969.9269               969.9935               973.5038
 Red. masses --      1.3353                 1.3352                 1.3193
 Frc consts  --      0.7402                 0.7402                 0.7366
 IR Inten    --      0.0358                 0.0327                 0.3107

                     52                     53                     54
                      A                      A                      A
 Frequencies --   1034.7188              1034.8096              1035.1868
 Red. masses --      3.0268                 3.0327                 3.0246
 Frc consts  --      1.9093                 1.9134                 1.9096
 IR Inten    --      7.9517                 7.8809                 0.1444

                     55                     56                     57
                      A                      A                      A
 Frequencies --   1102.9125              1103.1614              1108.8221
 Red. masses --      3.6672                 3.6665                 3.5536
 Frc consts  --      2.6282                 2.6289                 2.5742
 IR Inten    --     19.3535                19.1179                 1.8893

                     58                     59                     60
                      A                      A                      A
 Frequencies --   1127.5255              1127.7565              1127.9622
 Red. masses --      1.3305                 1.3303                 1.3293
 Frc consts  --      0.9966                 0.9968                 0.9964
 IR Inten    --      1.0077                 1.9219                 6.1108

                     61                     62                     63
                      A                      A                      A
 Frequencies --   1195.2217              1195.6504              1199.5134
 Red. masses --      1.1836                 1.1857                 1.1805
 Frc consts  --      0.9962                 0.9987                 1.0007
 IR Inten    --     60.6365                61.1636                 2.6492

                     64                     65                     66
                      A                      A                      A
 Frequencies --   1285.3243              1285.4799              1286.2142
 Red. masses --      3.7557                 3.7412                 3.7828
 Frc consts  --      3.6557                 3.6424                 3.6871
 IR Inten    --    167.4982               166.1462                38.7783

                     67                     68                     69
                      A                      A                      A
 Frequencies --   1324.1690              1327.2798              1327.8174
 Red. masses --      2.7450                 2.2248                 2.3363
 Frc consts  --      2.8359                 2.3093                 2.4270
 IR Inten    --      8.8006                 3.8836                 3.8837

                     70                     71                     72
                      A                      A                      A
 Frequencies --   1336.6987              1336.9073              1337.1797
 Red. masses --      2.3254                 2.2115                 1.9409
 Frc consts  --      2.4480                 2.3289                 2.0447
 IR Inten    --      0.3462                 0.3893                 0.8512

                     73                     74                     75
                      A                      A                      A
 Frequencies --   1437.9297              1438.0653              1438.2742
 Red. masses --      2.9855                 2.9929                 2.9868
 Frc consts  --      3.6369                 3.6467                 3.6404
 IR Inten    --      6.8239                 2.7012                 2.6018

                     76                     77                     78
                      A                      A                      A
 Frequencies --   1545.5580              1545.7410              1546.5291
 Red. masses --      2.4084                 2.4046                 2.4442
 Frc consts  --      3.3896                 3.3850                 3.4443
 IR Inten    --    116.2830               116.4515                24.4661

                     79                     80                     81
                      A                      A                      A
 Frequencies --   1633.9186              1633.9808              1634.0060
 Red. masses --      6.9691                 6.9565                 6.9611
 Frc consts  --     10.9620                10.9429                10.9505
 IR Inten    --      9.2384                15.2174                10.3117

                     82                     83                     84
                      A                      A                      A
 Frequencies --   1653.5092              1653.5685              1654.3878
 Red. masses --      5.8087                 5.8059                 5.8789
 Frc consts  --      9.3572                 9.3533                 9.4803
 IR Inten    --     82.8779                82.5608                22.5963

                     85                     86                     87
                      A                      A                      A
 Frequencies --   3188.7616              3188.8796              3188.9511
 Red. masses --      1.0892                 1.0892                 1.0892
 Frc consts  --      6.5254                 6.5258                 6.5259
 IR Inten    --      5.3771                 4.5297                 3.4830

                     88                     89                     90
                      A                      A                      A
 Frequencies --   3205.8182              3205.9178              3206.5298
 Red. masses --      1.0878                 1.0878                 1.0879
 Frc consts  --      6.5867                 6.5871                 6.5901
 IR Inten    --      2.0260                 2.0325                 0.3605

                     91                     92                     93
                      A                      A                      A
 Frequencies --   3221.8708              3221.9722              3222.1680
 Red. masses --      1.0942                 1.0942                 1.0940
 Frc consts  --      6.6921                 6.6924                 6.6923
 IR Inten    --      3.4528                 3.0781                11.4522

                     94                     95                     96
                      A                      A                      A
 Frequencies --   3222.5974              3222.6468              3222.8691
 Red. masses --      1.0937                 1.0936                 1.0939
 Frc consts  --      6.6919                 6.6919                 6.6947
 IR Inten    --     12.2337                12.2896                 0.2853

 - Thermochemistry -
 -------------------
 Temperature   298.150 Kelvin.  Pressure   1.00000 Atm.
 Atom     1 has atomic number  6 and mass  12.00000

 Molecular mass:   316.06287 amu.
 Principal axes and moments of inertia in atomic units:
                           1         2         3
     Eigenvalues --  8312.486488324.74750**********
           X            0.99972  -0.02384   0.00003
           Y            0.02384   0.99972  -0.00004
           Z           -0.00003   0.00005   1.00000
 This molecule is an asymmetric top.
 Rotational symmetry number  1.
 Warning -- assumption of classical behavior for rotation
           may cause significant error
 Rotational temperatures (Kelvin)      0.01042     0.01040     0.00597
 Rotational constants (GHZ):           0.21711     0.21679     0.12430
 Zero-point vibrational energy     655296.9 (Joules/Mol)
                                  156.61972 (Kcal/Mol)
 Warning -- explicit consideration of  28 degrees of freedom as
           vibrations may cause significant error
 Vibrational temperatures:     33.55    35.53    53.87    54.06    58.15
          (Kelvin)             72.84   191.35   209.31   209.79   300.74
                              314.86   315.88   443.07   483.41   483.61
                              571.41   581.41   581.54   605.22   605.39
                              611.12   625.85   626.24   667.01   766.88
                              767.12   770.56   874.88   906.43   906.51
                              932.68   932.87   932.99  1028.93  1029.66
                             1029.77  1202.44  1202.57  1204.03  1207.91
                             1207.95  1208.31  1213.83  1214.02  1214.48
                             1379.28  1379.43  1381.03  1395.51  1395.60
                             1400.65  1488.73  1488.86  1489.40  1586.85
                             1587.20  1595.35  1622.26  1622.59  1622.89
                             1719.66  1720.27  1725.83  1849.29  1849.52
                             1850.58  1905.18  1909.66  1910.43  1923.21
                             1923.51  1923.90  2068.86  2069.06  2069.36
                             2223.71  2223.98  2225.11  2350.84  2350.93
                             2350.97  2379.03  2379.12  2380.30  4587.92
                             4588.09  4588.19  4612.46  4612.60  4613.48
                             4635.55  4635.70  4635.98  4636.60  4636.67
                             4636.99

 Zero-point correction=                           0.249589 (Hartree/Particle)
 Thermal correction to Energy=                    0.268019
 Thermal correction to Enthalpy=                  0.268963
 Thermal correction to Gibbs Free Energy=         0.199516
 Sum of electronic and zero-point Energies=          -1333.749387
 Sum of electronic and thermal Energies=             -1333.730957
 Sum of electronic and thermal Enthalpies=           -1333.730013
 Sum of electronic and thermal Free Energies=        -1333.799460

                     E (Thermal)             CV                S
                      KCal/Mol        Cal/Mol-Kelvin    Cal/Mol-Kelvin
 Total                  168.184             71.393            146.163
 Electronic               0.000              0.000              0.000
 Translational            0.889              2.981             43.148
 Rotational               0.889              2.981             35.262
 Vibrational            166.407             65.432             67.753
 Vibration     1          0.593              1.985              6.329
 Vibration     2          0.593              1.985              6.216
 Vibration     3          0.594              1.982              5.390
 Vibration     4          0.594              1.982              5.383
 Vibration     5          0.594              1.981              5.239
 Vibration     6          0.595              1.977              4.793
 Vibration     7          0.613              1.920              2.902
 Vibration     8          0.617              1.908              2.731
 Vibration     9          0.617              1.907              2.726
 Vibration    10          0.642              1.827              2.052
 Vibration    11          0.647              1.812              1.969
 Vibration    12          0.647              1.811              1.963
 Vibration    13          0.698              1.659              1.373
 Vibration    14          0.717              1.604              1.231
 Vibration    15          0.717              1.603              1.230
 Vibration    16          0.764              1.476              0.973
 Vibration    17          0.769              1.461              0.948
 Vibration    18          0.769              1.461              0.947
 Vibration    19          0.783              1.425              0.890
 Vibration    20          0.783              1.425              0.889
 Vibration    21          0.787              1.416              0.876
 Vibration    22          0.796              1.394              0.843
 Vibration    23          0.796              1.393              0.842
 Vibration    24          0.821              1.331              0.756
 Vibration    25          0.888              1.177              0.581
 Vibration    26          0.888              1.177              0.580
 Vibration    27          0.891              1.171              0.575
 Vibration    28          0.967              1.015              0.436

                           ! Non-Optimized Parameters !
 Normal termination of Gaussian 16 at Sun Aug 23 16:18:39 2020.
 Gaussian 16:  ES64L-G16RevA.03 25-Dec-2016

 ----------------------------------------------------------------------
 # TD(NStates=10, Root=1) B3LYP/6-31G* scf=qc volume pop=NPA density=cu
 rrent Geom=AllCheck Guess=Read
 ----------------------------------------------------------------------

 Structure from the checkpoint file:  "phosphine_5_conf213.chk"
 -------------------
 Title Card Required
 -------------------
 Charge =  0 Multiplicity = 1

                         Standard orientation:
 ---------------------------------------------------------------------
 Center     Atomic      Atomic             Coordinates (Angstroms)
 Number     Number       Type             X           Y           Z
 ---------------------------------------------------------------------
      1          6           0       -3.200568   -0.991680   -1.131340
      2          6           0       -1.911682   -0.893463   -0.605290
      3          6           0       -1.662085   -0.169951    0.571723
      4          6           0       -2.747357    0.447255    1.218055
      5          6           0       -4.039105    0.369307    0.700670
      6          6           0       -4.242904   -0.353685   -0.469472
      7          9           0       -5.490810   -0.444700   -0.972876
      8         15           0       -0.001118   -0.000331    1.374821
      9          6           0        0.976911   -1.353374    0.571498
     10          6           0        1.725941   -1.207521   -0.606987
     11          6           0        2.456123   -2.273872   -1.133582
     12          6           0        2.427850   -3.495094   -0.470692
     13          6           0        1.702137   -3.680342    0.700843
     14          6           0        0.987949   -2.601359    1.218676
     15          9           0        3.131411   -4.529569   -0.974506
     16          6           0        0.683043    1.522995    0.572229
     17          6           0        1.767282    2.147680    1.213171
     18          6           0        2.346765    3.304724    0.695741
     19          6           0        1.816505    3.849061   -0.468770
     20          6           0        0.735761    3.272142   -1.124948
     21          6           0        0.175332    2.107180   -0.599086
     22          9           0        2.362769    4.974800   -0.972105
     23          1           0       -3.404319   -1.551732   -2.038415
     24          1           0       -1.094937   -1.392674   -1.117454
     25          1           0       -2.581100    0.993784    2.143155
     26          1           0       -4.881474    0.844936    1.192337
     27          1           0        1.747445   -0.250860   -1.119775
     28          1           0        3.041232   -2.170101   -2.041790
     29          1           0        1.713774   -4.647296    1.193206
     30          1           0        0.433279   -2.730849    2.144803
     31          1           0        2.162395    1.725662    2.134016
     32          1           0        3.185371    3.791211    1.183197
     33          1           0        0.348094    3.733318   -2.027710
     34          1           0       -0.670726    1.654782   -1.107124
 ---------------------------------------------------------------------

 SCF Done:  E(RB3LYP) =  -1333.99897611     a.u. after    1 cycles

 Excitation energies and oscillator strengths:

 Excited State   1:      Singlet-A      4.5721 eV  271.18 nm  f=0.1339  <S**2>=0.000
      81 -> 82         0.69325
 This state for optimization and/or second-order correction.
 Total Energy, E(TD-HF/TD-DFT) =  -1333.83095565
 Copying the excited state density for this state as the 1-particle RhoCI density.

 Excited State   2:      Singlet-A      4.5766 eV  270.91 nm  f=0.1355  <S**2>=0.000
      81 -> 83         0.69272

 Excited State   3:      Singlet-A      4.5869 eV  270.30 nm  f=0.0107  <S**2>=0.000
      81 -> 84         0.68789

 Excited State   4:      Singlet-A      4.9048 eV  252.78 nm  f=0.0018  <S**2>=0.000
      81 -> 85         0.67642

 Excited State   5:      Singlet-A      4.9071 eV  252.66 nm  f=0.0016  <S**2>=0.000
      81 -> 86         0.67590

 Excited State   6:      Singlet-A      5.2397 eV  236.62 nm  f=0.0075  <S**2>=0.000
      79 -> 82         0.10612
      80 -> 83         0.10745
      81 -> 87         0.67228

 Excited State   7:      Singlet-A      5.4166 eV  228.90 nm  f=0.0001  <S**2>=0.000
      75 -> 84         0.14112
      77 -> 82         0.18425
      78 -> 83        -0.15899
      79 -> 82        -0.27750
      79 -> 83        -0.29981
      79 -> 85        -0.15433
      80 -> 82         0.30035
      80 -> 83        -0.27094
      80 -> 86         0.13772

 Excited State   8:      Singlet-A      5.4448 eV  227.71 nm  f=0.0019  <S**2>=0.000
      76 -> 82         0.21169
      77 -> 82        -0.10160
      77 -> 83        -0.15776
      77 -> 87         0.12237
      78 -> 82         0.15882
      78 -> 83        -0.11254
      79 -> 84         0.30734
      79 -> 86        -0.15022
      80 -> 84         0.39391
      80 -> 85         0.15025
      81 -> 85        -0.12486

 Excited State   9:      Singlet-A      5.4465 eV  227.64 nm  f=0.0021  <S**2>=0.000
      76 -> 83        -0.20720
      77 -> 82         0.14246
      77 -> 83        -0.10410
      78 -> 82         0.10764
      78 -> 83         0.16766
      78 -> 87         0.12205
      79 -> 84         0.38768
      79 -> 85        -0.14112
      80 -> 84        -0.31776
      80 -> 86        -0.15935
      81 -> 86        -0.12584

 Excited State  10:      Singlet-A      5.6620 eV  218.98 nm  f=0.0043  <S**2>=0.000
      75 -> 84        -0.16148
      76 -> 84        -0.10157
      77 -> 82        -0.24741
      78 -> 83         0.23040
      79 -> 83        -0.19444
      79 -> 85         0.21534
      79 -> 86         0.10845
      80 -> 82         0.37456
      80 -> 85         0.11274
      80 -> 86        -0.23649

 The electronic state is 1-A.
 Alpha  occ. eigenvalues --  -77.09285 -24.70935 -24.70935 -24.70927 -10.27932
 Alpha  occ. eigenvalues --  -10.27932 -10.27922 -10.20803 -10.20802 -10.20797
 Alpha  occ. eigenvalues --  -10.20703 -10.20703 -10.20695 -10.20480 -10.20478
 Alpha  occ. eigenvalues --  -10.20476 -10.20319 -10.20319 -10.20311 -10.20311
 Alpha  occ. eigenvalues --  -10.20310 -10.20305  -6.55986  -4.72247  -4.72247
 Alpha  occ. eigenvalues --   -4.71743  -1.22114  -1.22114  -1.22105  -0.87207
 Alpha  occ. eigenvalues --   -0.86557  -0.86553  -0.77802  -0.76322  -0.76286
 Alpha  occ. eigenvalues --   -0.76283  -0.74869  -0.74865  -0.65458  -0.63139
 Alpha  occ. eigenvalues --   -0.62959  -0.62957  -0.60999  -0.60996  -0.57074
 Alpha  occ. eigenvalues --   -0.54666  -0.54663  -0.54254  -0.49447  -0.49443
 Alpha  occ. eigenvalues --   -0.49382  -0.48019  -0.48018  -0.46312  -0.46308
 Alpha  occ. eigenvalues --   -0.46295  -0.45865  -0.44922  -0.44919  -0.43857
 Alpha  occ. eigenvalues --   -0.43707  -0.43704  -0.42082  -0.40157  -0.40109
 Alpha  occ. eigenvalues --   -0.40106  -0.37164  -0.37156  -0.36438  -0.34998
 Alpha  occ. eigenvalues --   -0.34996  -0.34951  -0.33924  -0.33921  -0.27230
 Alpha  occ. eigenvalues --   -0.26848  -0.26602  -0.26595  -0.25430  -0.25417
 Alpha  occ. eigenvalues --   -0.21919
 Alpha virt. eigenvalues --   -0.02517  -0.02506  -0.02413  -0.01177  -0.01167
 Alpha virt. eigenvalues --   -0.00310   0.05874   0.05897   0.08466   0.10088
 Alpha virt. eigenvalues --    0.10090   0.12846   0.13529   0.13532   0.14052

 Mulliken charges:
               1
     1  C   -0.189474
     2  C   -0.164917
     3  C   -0.124465
     4  C   -0.181890
     5  C   -0.182573
     6  C    0.347891
     7  F   -0.301033
     8  P    0.435684
     9  C   -0.105611
    10  C   -0.188501
    11  C   -0.178341
    12  C    0.355001
    13  C   -0.200364
    14  C   -0.155136
    15  F   -0.299075
    16  C   -0.078923
    17  C   -0.161240
    18  C   -0.183114
    19  C    0.391194
    20  C   -0.184797
    21  C   -0.151056
    22  F   -0.281723
    23  H    0.142895
    24  H    0.152038
    25  H    0.128397
    26  H    0.139141
    27  H    0.131489
    28  H    0.142771
    29  H    0.140340
    30  H    0.138450
    31  H    0.158751
    32  H    0.162134
    33  H    0.165434
    34  H    0.180623
 Sum of Mulliken charges =  -0.00000

 Dipole moment (field-independent basis, Debye):
    X=              1.5435    Y=              3.0964    Z=              1.4593  Tot=              3.7550
 Quadrupole moment (field-independent basis, Debye-Ang):
   XX=           -144.0847   YY=           -134.9544   ZZ=           -121.8247
   XY=              4.8871   XZ=              0.5097   YZ=             -0.8306

 Summary of Natural Population Analysis:

                                       Natural Population
                Natural  -----------------------------------------------
    Atom  No    Charge         Core      Valence    Rydberg      Total
 -----------------------------------------------------------------------
      C    1   -0.30441      1.99899     4.29014    0.01528     6.30441
      C    2   -0.22155      1.99900     4.20539    0.01716     6.22155
      C    3   -0.48020      1.99888     4.45470    0.02662     6.48020
      C    4   -0.23322      1.99903     4.21766    0.01652     6.23322
      C    5   -0.29800      1.99900     4.28393    0.01508     6.29800
      C    6    0.38415      1.99844     3.58947    0.02795     5.61585
      F    7   -0.33621      1.99994     7.33075    0.00552     9.33621
      P    8    1.21017      9.99756     3.74076    0.05151    13.78983
      C    9   -0.44811      1.99887     4.42476    0.02448     6.44811
      C   10   -0.27548      1.99900     4.25774    0.01874     6.27548
      C   11   -0.28442      1.99899     4.27063    0.01480     6.28442
      C   12    0.39781      1.99844     3.57596    0.02779     5.60219
      C   13   -0.33236      1.99899     4.31707    0.01630     6.33236
      C   14   -0.18596      1.99902     4.17158    0.01536     6.18596
      F   15   -0.33430      1.99994     7.32885    0.00550     9.33430
      C   16   -0.38882      1.99891     4.36465    0.02527     6.38882
      C   17   -0.19385      1.99903     4.17955    0.01527     6.19385
      C   18   -0.30127      1.99899     4.28738    0.01490     6.30127
      C   19    0.45532      1.99844     3.51916    0.02708     5.54468
      C   20   -0.29818      1.99898     4.28446    0.01474     6.29818
      C   21   -0.19354      1.99901     4.17848    0.01605     6.19354
      F   22   -0.31906      1.99994     7.31353    0.00560     9.31906
      H   23    0.25003      0.00000     0.74877    0.00120     0.74997
      H   24    0.24776      0.00000     0.75054    0.00170     0.75224
      H   25    0.23153      0.00000     0.76758    0.00089     0.76847
      H   26    0.24740      0.00000     0.75136    0.00124     0.75260
      H   27    0.23716      0.00000     0.76150    0.00134     0.76284
      H   28    0.24956      0.00000     0.74923    0.00121     0.75044
      H   29    0.24890      0.00000     0.74992    0.00117     0.75110
      H   30    0.23785      0.00000     0.76103    0.00112     0.76215
      H   31    0.24788      0.00000     0.75093    0.00119     0.75212
      H   32    0.25860      0.00000     0.74022    0.00118     0.74140
      H   33    0.26063      0.00000     0.73820    0.00117     0.73937
      H   34    0.26422      0.00000     0.73458    0.00119     0.73578
 =======================================================================
   * Total *    0.00000     51.97740   109.59047    0.43214   162.00000

 Normal termination of Gaussian 16 at Sun Aug 23 16:33:05 2020.
