 Gaussian 16, Revision A.03,

 ---------------------------------
 # opt=CalcAll B3LYP/6-31G* scf=qc
 ---------------------------------

 -------------------
 Title Card Required
 -------------------
 Symbolic Z-matrix:
 Charge =  0 Multiplicity = 1

 SCF Done:  E(RB3LYP) =  -1333.96885370     a.u. after    8 cycles
 SCF Done:  E(RB3LYP) =  -1333.97951103     a.u. after   17 cycles
 SCF Done:  E(RB3LYP) =  -1333.98222903     a.u. after   17 cycles
 SCF Done:  E(RB3LYP) =  -1333.99432298     a.u. after   15 cycles
 SCF Done:  E(RB3LYP) =  -1333.99843230     a.u. after   17 cycles
 SCF Done:  E(RB3LYP) =  -1333.99888837     a.u. after   15 cycles
 SCF Done:  E(RB3LYP) =  -1333.99892627     a.u. after    7 cycles
 SCF Done:  E(RB3LYP) =  -1333.99897369     a.u. after   11 cycles
 SCF Done:  E(RB3LYP) =  -1333.99898218     a.u. after    4 cycles
 SCF Done:  E(RB3LYP) =  -1333.99897502     a.u. after    4 cycles
 SCF Done:  E(RB3LYP) =  -1333.99897468     a.u. after    4 cycles
 SCF Done:  E(RB3LYP) =  -1333.99897557     a.u. after    3 cycles
 SCF Done:  E(RB3LYP) =  -1333.99897819     a.u. after    2 cycles
 SCF Done:  E(RB3LYP) =  -1333.99897487     a.u. after    2 cycles
 SCF Done:  E(RB3LYP) =  -1333.99897483     a.u. after    2 cycles
 SCF Done:  E(RB3LYP) =  -1333.99897344     a.u. after    4 cycles
 SCF Done:  E(RB3LYP) =  -1333.99898265     a.u. after    2 cycles
 Optimization completed.
    -- Stationary point found.
 Normal termination of Gaussian 16 at Sun Aug 23 16:44:39 2020.

 ----------------------------------------------------------------------
 # freq B3LYP/6-31G* scf=qc volume NMR pop=NPA density=current Geom=All
 Check Guess=Read
 ----------------------------------------------------------------------

 Structure from the checkpoint file:  "phosphine_5_conf92.chk"
 -------------------
 Title Card Required
 -------------------
 Charge =  0 Multiplicity = 1

 SCF Done:  E(RB3LYP) =  -1333.99898265     a.u. after    1 cycles

      1  C    Isotropic =    79.9289   Anisotropy =   137.4471

      2  C    Isotropic =    59.0495   Anisotropy =   162.7906

      3  C    Isotropic =    61.5995   Anisotropy =   173.5217

      4  C    Isotropic =    60.7182   Anisotropy =   171.8561

      5  C    Isotropic =    80.0625   Anisotropy =   136.7107

      6  C    Isotropic =    32.6703   Anisotropy =    98.8048

      7  F    Isotropic =   295.8141   Anisotropy =   113.0179

      8  P    Isotropic =   366.2970   Anisotropy =    40.2604

      9  C    Isotropic =    61.6237   Anisotropy =   173.5064

     10  C    Isotropic =    60.7008   Anisotropy =   171.8955

     11  C    Isotropic =    80.0655   Anisotropy =   136.7227

     12  C    Isotropic =    32.6555   Anisotropy =    98.8283

     13  C    Isotropic =    79.9364   Anisotropy =   137.4564

     14  C    Isotropic =    59.0288   Anisotropy =   162.7685

     15  F    Isotropic =   295.7784   Anisotropy =   113.0366

     16  C    Isotropic =    61.6393   Anisotropy =   173.4777

     17  C    Isotropic =    59.0357   Anisotropy =   162.7825

     18  C    Isotropic =    79.9292   Anisotropy =   137.4449

     19  C    Isotropic =    32.6579   Anisotropy =    98.8253

     20  C    Isotropic =    80.0648   Anisotropy =   136.7215

     21  C    Isotropic =    60.7098   Anisotropy =   171.8905

     22  F    Isotropic =   295.7896   Anisotropy =   113.0294

     23  H    Isotropic =    25.3592   Anisotropy =     4.2587

     24  H    Isotropic =    24.6200   Anisotropy =     8.9229

     25  H    Isotropic =    25.3659   Anisotropy =    12.0245

     26  H    Isotropic =    25.4663   Anisotropy =     5.7378

     27  H    Isotropic =    25.3636   Anisotropy =    12.0151

     28  H    Isotropic =    25.4656   Anisotropy =     5.7384

     29  H    Isotropic =    25.3586   Anisotropy =     4.2579

     30  H    Isotropic =    24.6171   Anisotropy =     8.9163

     31  H    Isotropic =    24.6190   Anisotropy =     8.9186

     32  H    Isotropic =    25.3568   Anisotropy =     4.2613

     33  H    Isotropic =    25.4666   Anisotropy =     5.7358

     34  H    Isotropic =    25.3637   Anisotropy =    12.0172

  Exact polarizability: 226.210   0.041 226.077   0.039   0.039 167.767
 Approx polarizability: 337.865   0.089 337.629   0.083   0.092 314.960

                      1                      2                      3
                      A                      A                      A
 Frequencies --     25.1832                25.7768                37.6750
 Red. masses --      4.1389                 4.1494                 8.6816
 Frc consts  --      0.0015                 0.0016                 0.0073
 IR Inten    --      0.2448                 0.2450                 0.1043

                      4                      5                      6
                      A                      A                      A
 Frequencies --     37.8090                40.3508                50.8039
 Red. masses --      8.6806                 3.7422                 9.9471
 Frc consts  --      0.0073                 0.0036                 0.0151
 IR Inten    --      0.1030                 0.0063                 0.1141

                      7                      8                      9
                      A                      A                      A
 Frequencies --    132.9710               145.5119               145.7087
 Red. masses --      8.0526                 8.3677                 8.3712
 Frc consts  --      0.0839                 0.1044                 0.1047
 IR Inten    --      0.0229                 0.5187                 0.5162

                     10                     11                     12
                      A                      A                      A
 Frequencies --    208.9944               218.8605               219.2268
 Red. masses --      8.0472                 6.9840                 6.9922
 Frc consts  --      0.2071                 0.1971                 0.1980
 IR Inten    --      0.2911                 0.5249                 0.5235

                     13                     14                     15
                      A                      A                      A
 Frequencies --    308.0282               336.1002               336.1706
 Red. masses --      8.4333                 8.3119                 8.3103
 Frc consts  --      0.4714                 0.5532                 0.5533
 IR Inten    --      1.0276                 0.0456                 0.0447

                     16                     17                     18
                      A                      A                      A
 Frequencies --    397.1683               404.1465               404.2381
 Red. masses --      7.7441                 8.0294                 7.9987
 Frc consts  --      0.7197                 0.7727                 0.7701
 IR Inten    --      0.3046                10.0271                10.0522

                     19                     20                     21
                      A                      A                      A
 Frequencies --    420.7820               420.8287               424.7116
 Red. masses --      3.2832                 3.2803                 3.1323
 Frc consts  --      0.3425                 0.3423                 0.3329
 IR Inten    --      1.1264                 1.1685                 0.0208

                     22                     23                     24
                      A                      A                      A
 Frequencies --    435.0750               435.1686               463.4394
 Red. masses --      6.1482                 6.1552                 6.6357
 Frc consts  --      0.6857                 0.6868                 0.8397
 IR Inten    --     19.0326                19.0484                 7.3722

                     25                     26                     27
                      A                      A                      A
 Frequencies --    533.1770               533.2816               535.6241
 Red. masses --      2.8115                 2.8113                 2.9076
 Frc consts  --      0.4709                 0.4711                 0.4915
 IR Inten    --     21.8448                21.8358                13.4733

                     28                     29                     30
                      A                      A                      A
 Frequencies --    608.0527               630.0117               630.0738
 Red. masses --      7.9092                 7.8307                 7.8283
 Frc consts  --      1.7229                 1.8313                 1.8311
 IR Inten    --      0.0085                 0.0387                 0.0382

                     31                     32                     33
                      A                      A                      A
 Frequencies --    648.2520               648.4120               648.4342
 Red. masses --      7.2777                 7.3783                 7.3801
 Frc consts  --      1.8019                 1.8277                 1.8283
 IR Inten    --      0.0054                 0.1280                 0.1281

                     34                     35                     36
                      A                      A                      A
 Frequencies --    715.2140               715.7424               715.8299
 Red. masses --      4.8114                 4.8302                 4.8331
 Frc consts  --      1.4501                 1.4579                 1.4591
 IR Inten    --      1.0090                 3.9640                 4.0059

                     37                     38                     39
                      A                      A                      A
 Frequencies --    835.8163               835.8722               836.9119
 Red. masses --      1.2658                 1.2619                 1.3282
 Frc consts  --      0.5210                 0.5195                 0.5481
 IR Inten    --      0.7523                 0.4435                11.1478

                     40                     41                     42
                      A                      A                      A
 Frequencies --    839.5478               839.6011               839.7882
 Red. masses --      3.2639                 3.2661                 3.9787
 Frc consts  --      1.3554                 1.3565                 1.6532
 IR Inten    --     61.2771                61.3924                18.8785

                     43                     44                     45
                      A                      A                      A
 Frequencies --    843.7035               843.7391               843.9683
 Red. masses --      1.9812                 1.9362                 1.7221
 Frc consts  --      0.8309                 0.8121                 0.7227
 IR Inten    --     10.3071                10.3831                12.0519

                     46                     47                     48
                      A                      A                      A
 Frequencies --    958.7099               958.7627               959.8518
 Red. masses --      1.2558                 1.2557                 1.2579
 Frc consts  --      0.6800                 0.6801                 0.6828
 IR Inten    --      0.1644                 0.1603                 0.3474

                     49                     50                     51
                      A                      A                      A
 Frequencies --    969.9726               970.0309               973.2036
 Red. masses --      1.3354                 1.3352                 1.3208
 Frc consts  --      0.7402                 0.7402                 0.7371
 IR Inten    --      0.0321                 0.0293                 0.3077

                     52                     53                     54
                      A                      A                      A
 Frequencies --   1034.7000              1034.8127              1035.2049
 Red. masses --      3.0249                 3.0320                 3.0233
 Frc consts  --      1.9081                 1.9130                 1.9089
 IR Inten    --      7.9902                 7.8932                 0.1413

                     55                     56                     57
                      A                      A                      A
 Frequencies --   1102.8542              1103.0516              1108.5561
 Red. masses --      3.6682                 3.6643                 3.5531
 Frc consts  --      2.6287                 2.6268                 2.5726
 IR Inten    --     19.2426                19.2511                 2.0033

                     58                     59                     60
                      A                      A                      A
 Frequencies --   1127.5334              1127.7257              1127.9108
 Red. masses --      1.3306                 1.3305                 1.3298
 Frc consts  --      0.9967                 0.9969                 0.9967
 IR Inten    --      0.9642                 2.5487                 5.4532

                     61                     62                     63
                      A                      A                      A
 Frequencies --   1195.1396              1195.5852              1199.3800
 Red. masses --      1.1830                 1.1849                 1.1796
 Frc consts  --      0.9956                 0.9979                 0.9998
 IR Inten    --     60.3768                60.9493                 2.6801

                     64                     65                     66
                      A                      A                      A
 Frequencies --   1285.2951              1285.4662              1286.1729
 Red. masses --      3.7579                 3.7468                 3.7882
 Frc consts  --      3.6576                 3.6478                 3.6921
 IR Inten    --    166.6872               166.1449                39.8581

                     67                     68                     69
                      A                      A                      A
 Frequencies --   1324.1747              1327.3399              1327.7746
 Red. masses --      2.7053                 2.2066                 2.3127
 Frc consts  --      2.7949                 2.2906                 2.4023
 IR Inten    --      8.9198                 3.9133                 3.8686

                     70                     71                     72
                      A                      A                      A
 Frequencies --   1336.7065              1336.8730              1337.1381
 Red. masses --      2.3515                 2.2070                 1.9780
 Frc consts  --      2.4755                 2.3240                 2.0836
 IR Inten    --      0.3644                 0.4229                 0.7933

                     73                     74                     75
                      A                      A                      A
 Frequencies --   1437.9468              1438.1006              1438.2774
 Red. masses --      2.9878                 2.9936                 2.9869
 Frc consts  --      3.6399                 3.6477                 3.6405
 IR Inten    --      6.8082                 2.6924                 2.6500

                     76                     77                     78
                      A                      A                      A
 Frequencies --   1545.5494              1545.7573              1546.5364
 Red. masses --      2.4091                 2.4054                 2.4451
 Frc consts  --      3.3905                 3.3863                 3.4456
 IR Inten    --    116.4615               116.1057                24.6543

                     79                     80                     81
                      A                      A                      A
 Frequencies --   1633.9729              1634.0114              1634.0347
 Red. masses --      6.9729                 6.9651                 6.9607
 Frc consts  --     10.9687                10.9570                10.9503
 IR Inten    --      9.2333                13.1900                12.3277

                     82                     83                     84
                      A                      A                      A
 Frequencies --   1653.5380              1653.5754              1654.4121
 Red. masses --      5.8096                 5.8050                 5.8779
 Frc consts  --      9.3589                 9.3519                 9.4790
 IR Inten    --     82.8307                82.6348                22.5324

                     85                     86                     87
                      A                      A                      A
 Frequencies --   3188.8123              3188.9067              3188.9585
 Red. masses --      1.0892                 1.0892                 1.0892
 Frc consts  --      6.5256                 6.5259                 6.5260
 IR Inten    --      5.5557                 4.5625                 3.2848

                     88                     89                     90
                      A                      A                      A
 Frequencies --   3205.7431              3205.9058              3206.5457
 Red. masses --      1.0878                 1.0878                 1.0879
 Frc consts  --      6.5866                 6.5871                 6.5901
 IR Inten    --      2.0005                 1.9546                 0.4363

                     91                     92                     93
                      A                      A                      A
 Frequencies --   3221.9046              3221.9652              3222.1938
 Red. masses --      1.0942                 1.0942                 1.0941
 Frc consts  --      6.6923                 6.6925                 6.6926
 IR Inten    --      3.2798                 3.5853                11.5273

                     94                     95                     96
                      A                      A                      A
 Frequencies --   3222.6736              3222.6993              3222.9194
 Red. masses --      1.0936                 1.0936                 1.0939
 Frc consts  --      6.6920                 6.6921                 6.6947
 IR Inten    --     12.0684                12.2411                 0.1048

 - Thermochemistry -
 -------------------
 Temperature   298.150 Kelvin.  Pressure   1.00000 Atm.
 Atom     1 has atomic number  6 and mass  12.00000

 Molecular mass:   316.06287 amu.
 Principal axes and moments of inertia in atomic units:
                           1         2         3
     Eigenvalues --  8316.081198320.80431**********
           X            0.99985   0.01747   0.00001
           Y           -0.01747   0.99985   0.00001
           Z           -0.00001  -0.00001   1.00000
 This molecule is an asymmetric top.
 Rotational symmetry number  1.
 Warning -- assumption of classical behavior for rotation
           may cause significant error
 Rotational temperatures (Kelvin)      0.01042     0.01041     0.00597
 Rotational constants (GHZ):           0.21702     0.21690     0.12431
 Zero-point vibrational energy     655318.2 (Joules/Mol)
                                  156.62481 (Kcal/Mol)
 Warning -- explicit consideration of  28 degrees of freedom as
           vibrations may cause significant error
 Vibrational temperatures:     36.23    37.09    54.21    54.40    58.06
          (Kelvin)             73.10   191.32   209.36   209.64   300.70
                              314.89   315.42   443.18   483.57   483.67
                              571.44   581.48   581.61   605.41   605.48
                              611.07   625.98   626.11   666.79   767.12
                              767.27   770.64   874.85   906.45   906.54
                              932.69   932.92   932.95  1029.03  1029.79
                             1029.92  1202.55  1202.63  1204.13  1207.92
                             1208.00  1208.27  1213.90  1213.95  1214.28
                             1379.37  1379.45  1381.01  1395.57  1395.66
                             1400.22  1488.70  1488.86  1489.43  1586.76
                             1587.05  1594.97  1622.27  1622.55  1622.81
                             1719.54  1720.18  1725.64  1849.25  1849.50
                             1850.52  1905.19  1909.75  1910.37  1923.22
                             1923.46  1923.84  2068.88  2069.11  2069.36
                             2223.70  2224.00  2225.12  2350.92  2350.98
                             2351.01  2379.07  2379.13  2380.33  4587.99
                             4588.13  4588.20  4612.35  4612.58  4613.50
                             4635.60  4635.69  4636.02  4636.71  4636.75
                             4637.06

 Zero-point correction=                           0.249598 (Hartree/Particle)
 Thermal correction to Energy=                    0.268019
 Thermal correction to Enthalpy=                  0.268964
 Thermal correction to Gibbs Free Energy=         0.199643
 Sum of electronic and zero-point Energies=          -1333.749385
 Sum of electronic and thermal Energies=             -1333.730963
 Sum of electronic and thermal Enthalpies=           -1333.730019
 Sum of electronic and thermal Free Energies=        -1333.799340

                     E (Thermal)             CV                S
                      KCal/Mol        Cal/Mol-Kelvin    Cal/Mol-Kelvin
 Total                  168.185             71.392            145.898
 Electronic               0.000              0.000              0.000
 Translational            0.889              2.981             43.148
 Rotational               0.889              2.981             35.262
 Vibrational            166.407             65.430             67.488
 Vibration     1          0.593              1.985              6.177
 Vibration     2          0.593              1.985              6.130
 Vibration     3          0.594              1.982              5.378
 Vibration     4          0.594              1.982              5.371
 Vibration     5          0.594              1.981              5.242
 Vibration     6          0.595              1.977              4.786
 Vibration     7          0.613              1.920              2.903
 Vibration     8          0.617              1.908              2.730
 Vibration     9          0.617              1.907              2.728
 Vibration    10          0.642              1.827              2.052
 Vibration    11          0.647              1.812              1.968
 Vibration    12          0.647              1.812              1.965
 Vibration    13          0.698              1.658              1.373
 Vibration    14          0.717              1.603              1.231
 Vibration    15          0.717              1.603              1.230
 Vibration    16          0.764              1.476              0.973
 Vibration    17          0.769              1.461              0.948
 Vibration    18          0.769              1.461              0.947
 Vibration    19          0.783              1.425              0.889
 Vibration    20          0.783              1.425              0.889
 Vibration    21          0.787              1.416              0.876
 Vibration    22          0.796              1.394              0.842
 Vibration    23          0.796              1.394              0.842
 Vibration    24          0.821              1.331              0.756
 Vibration    25          0.888              1.177              0.580
 Vibration    26          0.888              1.176              0.580
 Vibration    27          0.891              1.171              0.575
 Vibration    28          0.967              1.015              0.436

                           ! Non-Optimized Parameters !
 Normal termination of Gaussian 16 at Sun Aug 23 16:58:25 2020.
 Gaussian 16:  ES64L-G16RevA.03 25-Dec-2016

 ----------------------------------------------------------------------
 # TD(NStates=10, Root=1) B3LYP/6-31G* scf=qc volume pop=NPA density=cu
 rrent Geom=AllCheck Guess=Read
 ----------------------------------------------------------------------

 Structure from the checkpoint file:  "phosphine_5_conf93.chk"
 -------------------
 Title Card Required
 -------------------
 Charge =  0 Multiplicity = 1

                         Standard orientation:
 ---------------------------------------------------------------------
 Center     Atomic      Atomic             Coordinates (Angstroms)
 Number     Number       Type             X           Y           Z
 ---------------------------------------------------------------------
      1          6           0        1.771224   -3.646716    0.698047
      2          6           0        1.389086   -2.410481    1.215758
      3          6           0        0.425604   -1.614207    0.572175
      4          6           0       -0.167112   -2.104661   -0.602228
      5          6           0        0.195014   -3.345449   -1.128511
      6          6           0        1.162861   -4.094128   -0.469540
      7          9           0        1.517419   -5.293969   -0.973207
      8         15           0       -0.000337    0.000326    1.374961
      9          6           0        1.185110    1.176023    0.571747
     10          6           0        1.903220    0.908980   -0.604728
     11          6           0        2.797250    1.842395   -1.131089
     12          6           0        2.965331    3.053299   -0.470021
     13          6           0        2.276660    3.355434    0.699571
     14          6           0        1.396434    2.406956    1.217238
     15          9           0        3.827817    3.959631   -0.973661
     16          6           0       -1.611413    0.438526    0.571804
     17          6           0       -2.782803    0.004252    1.216626
     18          6           0       -4.044505    0.291716    0.699102
     19          6           0       -4.127720    1.040530   -0.469597
     20          6           0       -2.995340    1.502311   -1.129892
     21          6           0       -1.739733    1.195298   -0.603740
     22          9           0       -5.344071    1.333739   -0.973087
     23          1           0        2.515890   -4.265928    1.187531
     24          1           0        1.844936   -2.060904    2.138882
     25          1           0       -0.924805   -1.517756   -1.112160
     26          1           0       -0.260028   -3.734885   -2.033623
     27          1           0        1.771026   -0.039447   -1.116184
     28          1           0        3.359769    1.643807   -2.037783
     29          1           0        2.443365    4.308667    1.190602
     30          1           0        0.868118    2.626032    2.141921
     31          1           0       -2.707972   -0.563834    2.140659
     32          1           0       -4.953130   -0.041985    1.189604
     33          1           0       -3.105021    2.089767   -2.035882
     34          1           0       -0.852588    1.556503   -1.114703
 ---------------------------------------------------------------------

 SCF Done:  E(RB3LYP) =  -1333.99898265     a.u. after    1 cycles

 Excitation energies and oscillator strengths:

 Excited State   1:      Singlet-A      4.5738 eV  271.08 nm  f=0.1353  <S**2>=0.000
      81 -> 82         0.69412
 This state for optimization and/or second-order correction.
 Total Energy, E(TD-HF/TD-DFT) =  -1333.83089988
 Copying the excited state density for this state as the 1-particle RhoCI density.

 Excited State   2:      Singlet-A      4.5752 eV  270.99 nm  f=0.1360  <S**2>=0.000
      81 -> 83         0.69418

 Excited State   3:      Singlet-A      4.5865 eV  270.32 nm  f=0.0089  <S**2>=0.000
      81 -> 84         0.68924

 Excited State   4:      Singlet-A      4.9056 eV  252.74 nm  f=0.0017  <S**2>=0.000
      81 -> 85         0.67612

 Excited State   5:      Singlet-A      4.9063 eV  252.70 nm  f=0.0017  <S**2>=0.000
      81 -> 86         0.67595

 Excited State   6:      Singlet-A      5.2396 eV  236.63 nm  f=0.0075  <S**2>=0.000
      79 -> 82        -0.11035
      80 -> 83         0.11067
      81 -> 87         0.67230

 Excited State   7:      Singlet-A      5.4168 eV  228.89 nm  f=0.0000  <S**2>=0.000
      75 -> 84        -0.14218
      77 -> 82         0.17662
      78 -> 83         0.16907
      79 -> 82         0.25932
      79 -> 83         0.31465
      79 -> 85         0.14741
      80 -> 82         0.31438
      80 -> 83        -0.25716
      80 -> 86        -0.14218

 Excited State   8:      Singlet-A      5.4453 eV  227.69 nm  f=0.0020  <S**2>=0.000
      76 -> 82         0.20824
      77 -> 83        -0.18846
      77 -> 87        -0.12297
      78 -> 82        -0.18926
      79 -> 84        -0.31137
      79 -> 86        -0.12140
      80 -> 84         0.39262
      80 -> 85         0.12239
      81 -> 85         0.12702

 Excited State   9:      Singlet-A      5.4458 eV  227.67 nm  f=0.0021  <S**2>=0.000
      76 -> 83         0.20713
      77 -> 82        -0.18398
      78 -> 83         0.19190
      78 -> 87        -0.12291
      79 -> 84         0.39105
      79 -> 85        -0.11945
      80 -> 84         0.31424
      80 -> 86        -0.12503
      81 -> 86         0.12743

 Excited State  10:      Singlet-A      5.6625 eV  218.96 nm  f=0.0010  <S**2>=0.000
      75 -> 84         0.16532
      76 -> 84        -0.10297
      77 -> 82        -0.24745
      78 -> 83        -0.24182
      79 -> 83         0.26280
      79 -> 85        -0.22373
      79 -> 86         0.11716
      80 -> 82         0.32263
      80 -> 85         0.11847
      80 -> 86         0.23075

 The electronic state is 1-A.
 Alpha  occ. eigenvalues --  -77.09285 -24.70934 -24.70933 -24.70931 -10.27930
 Alpha  occ. eigenvalues --  -10.27929 -10.27927 -10.20802 -10.20801 -10.20800
 Alpha  occ. eigenvalues --  -10.20701 -10.20700 -10.20698 -10.20478 -10.20478
 Alpha  occ. eigenvalues --  -10.20477 -10.20317 -10.20317 -10.20315 -10.20309
 Alpha  occ. eigenvalues --  -10.20309 -10.20308  -6.55986  -4.72248  -4.72248
 Alpha  occ. eigenvalues --   -4.71743  -1.22112  -1.22112  -1.22109  -0.87207
 Alpha  occ. eigenvalues --   -0.86556  -0.86554  -0.77802  -0.76322  -0.76285
 Alpha  occ. eigenvalues --   -0.76285  -0.74868  -0.74866  -0.65458  -0.63138
 Alpha  occ. eigenvalues --   -0.62958  -0.62958  -0.60998  -0.60997  -0.57074
 Alpha  occ. eigenvalues --   -0.54665  -0.54664  -0.54254  -0.49446  -0.49445
 Alpha  occ. eigenvalues --   -0.49382  -0.48019  -0.48018  -0.46310  -0.46309
 Alpha  occ. eigenvalues --   -0.46296  -0.45864  -0.44921  -0.44920  -0.43857
 Alpha  occ. eigenvalues --   -0.43706  -0.43705  -0.42082  -0.40157  -0.40108
 Alpha  occ. eigenvalues --   -0.40107  -0.37161  -0.37158  -0.36438  -0.34997
 Alpha  occ. eigenvalues --   -0.34996  -0.34951  -0.33923  -0.33923  -0.27231
 Alpha  occ. eigenvalues --   -0.26848  -0.26600  -0.26597  -0.25425  -0.25422
 Alpha  occ. eigenvalues --   -0.21919
 Alpha virt. eigenvalues --   -0.02512  -0.02509  -0.02413  -0.01173  -0.01170
 Alpha virt. eigenvalues --   -0.00310   0.05882   0.05888   0.08467   0.10089
 Alpha virt. eigenvalues --    0.10089   0.12847   0.13530   0.13531   0.14052

 Mulliken charges:
               1
     1  C   -0.186563
     2  C   -0.158622
     3  C   -0.077247
     4  C   -0.155648
     5  C   -0.184214
     6  C    0.390538
     7  F   -0.282490
     8  P    0.435493
     9  C   -0.114794
    10  C   -0.187827
    11  C   -0.178752
    12  C    0.346592
    13  C   -0.197671
    14  C   -0.159482
    15  F   -0.302353
    16  C   -0.117303
    17  C   -0.180048
    18  C   -0.181521
    19  C    0.356600
    20  C   -0.189416
    21  C   -0.160699
    22  F   -0.297074
    23  H    0.160842
    24  H    0.158536
    25  H    0.174738
    26  H    0.163723
    27  H    0.128647
    28  H    0.139751
    29  H    0.137206
    30  H    0.133374
    31  H    0.133680
    32  H    0.143611
    33  H    0.147654
    34  H    0.160739
 Sum of Mulliken charges =   0.00000

 Dipole moment (field-independent basis, Debye):
    X=             -0.1096    Y=             -3.2811    Z=              1.4572  Tot=              3.5918
 Quadrupole moment (field-independent basis, Debye-Ang):
   XX=           -143.8701   YY=           -135.1672   ZZ=           -121.8224
   XY=             -4.6811   XZ=              0.7477   YZ=              0.4864

 Summary of Natural Population Analysis:

                                       Natural Population
                Natural  -----------------------------------------------
    Atom  No    Charge         Core      Valence    Rydberg      Total
 -----------------------------------------------------------------------
      C    1   -0.30761      1.99899     4.29344    0.01518     6.30761
      C    2   -0.18993      1.99903     4.17565    0.01525     6.18993
      C    3   -0.38655      1.99890     4.36289    0.02476     6.38655
      C    4   -0.20422      1.99901     4.18885    0.01637     6.20422
      C    5   -0.29721      1.99898     4.28347    0.01476     6.29721
      C    6    0.45486      1.99844     3.51960    0.02710     5.54514
      F    7   -0.31971      1.99994     7.31419    0.00559     9.31971
      P    8    1.21007      9.99756     3.74081    0.05156    13.78993
      C    9   -0.46635      1.99887     4.44257    0.02491     6.46635
      C   10   -0.27404      1.99900     4.25640    0.01864     6.27404
      C   11   -0.28462      1.99899     4.27079    0.01484     6.28462
      C   12    0.38329      1.99844     3.59034    0.02793     5.61671
      C   13   -0.32688      1.99899     4.31176    0.01612     6.32688
      C   14   -0.19415      1.99902     4.17955    0.01558     6.19415
      F   15   -0.33725      1.99994     7.33182    0.00549     9.33725
      C   16   -0.46500      1.99889     4.43935    0.02676     6.46500
      C   17   -0.22875      1.99903     4.21338    0.01634     6.22875
      C   18   -0.29655      1.99899     4.28259    0.01497     6.29655
      C   19    0.39835      1.99844     3.57541    0.02780     5.60165
      C   20   -0.30468      1.99899     4.29048    0.01521     6.30468
      C   21   -0.21186      1.99900     4.19593    0.01693     6.21186
      F   22   -0.33269      1.99994     7.32721    0.00554     9.33269
      H   23    0.25816      0.00000     0.74067    0.00117     0.74184
      H   24    0.24809      0.00000     0.75069    0.00122     0.75191
      H   25    0.26105      0.00000     0.73776    0.00119     0.73895
      H   26    0.25978      0.00000     0.73904    0.00117     0.74022
      H   27    0.23538      0.00000     0.76318    0.00143     0.76462
      H   28    0.24814      0.00000     0.75065    0.00121     0.75186
      H   29    0.24728      0.00000     0.75154    0.00118     0.75272
      H   30    0.23503      0.00000     0.76390    0.00106     0.76497
      H   31    0.23414      0.00000     0.76494    0.00092     0.76586
      H   32    0.24947      0.00000     0.74929    0.00124     0.75053
      H   33    0.25230      0.00000     0.74650    0.00120     0.74770
      H   34    0.25267      0.00000     0.74572    0.00162     0.74733
 =======================================================================
   * Total *   -0.00000     51.97740   109.59037    0.43223   162.00000

 Normal termination of Gaussian 16 at Sun Aug 23 17:13:50 2020.
