 Gaussian 16, Revision A.03,

 ---------------------------------
 # opt=CalcAll B3LYP/6-31G* scf=qc
 ---------------------------------

 -------------------
 Title Card Required
 -------------------
 Symbolic Z-matrix:
 Charge =  0 Multiplicity = 1

 SCF Done:  E(RB3LYP) =  -814.826799740     a.u. after    7 cycles
 SCF Done:  E(RB3LYP) =  -814.841388927     a.u. after   13 cycles
 SCF Done:  E(RB3LYP) =  -814.878173483     a.u. after   13 cycles
 SCF Done:  E(RB3LYP) =  -814.896703291     a.u. after   15 cycles
 SCF Done:  E(RB3LYP) =  -814.902036445     a.u. after   13 cycles
 SCF Done:  E(RB3LYP) =  -814.903600178     a.u. after   11 cycles
 SCF Done:  E(RB3LYP) =  -814.903904344     a.u. after    9 cycles
 SCF Done:  E(RB3LYP) =  -814.904004293     a.u. after   11 cycles
 SCF Done:  E(RB3LYP) =  -814.903689077     a.u. after   15 cycles
 SCF Done:  E(RB3LYP) =  -814.904139188     a.u. after   10 cycles
 SCF Done:  E(RB3LYP) =  -814.904312648     a.u. after    7 cycles
 SCF Done:  E(RB3LYP) =  -814.904315923     a.u. after    4 cycles
 SCF Done:  E(RB3LYP) =  -814.904316576     a.u. after    3 cycles
 SCF Done:  E(RB3LYP) =  -814.904316590     a.u. after    2 cycles
 SCF Done:  E(RB3LYP) =  -814.904316577     a.u. after    2 cycles
 Optimization completed.
    -- Stationary point found.
 Normal termination of Gaussian 16 at Sun Aug 23 07:07:33 2020.

 ----------------------------------------------------------------------
 # freq B3LYP/6-31G* scf=qc volume NMR pop=NPA density=current Geom=All
 Check Guess=Read
 ----------------------------------------------------------------------

 Structure from the checkpoint file:  "phosphine_2_conf102.chk"
 -------------------
 Title Card Required
 -------------------
 Charge =  0 Multiplicity = 1

 SCF Done:  E(RB3LYP) =  -814.904316577     a.u. after    1 cycles

      1  C    Isotropic =   176.3067   Anisotropy =    18.7987

      2  C    Isotropic =   167.2077   Anisotropy =    10.7309

      3  C    Isotropic =   158.4390   Anisotropy =    11.5489

      4  C    Isotropic =   160.7153   Anisotropy =    31.4800

      5  H    Isotropic =    31.1330   Anisotropy =     7.5426

      6  H    Isotropic =    30.4532   Anisotropy =     4.1649

      7  P    Isotropic =   383.5430   Anisotropy =    41.1695

      8  C    Isotropic =   153.5258   Anisotropy =    28.9404

      9  H    Isotropic =    30.5315   Anisotropy =     7.9169

     10  H    Isotropic =    31.0225   Anisotropy =     3.9915

     11  C    Isotropic =   160.3647   Anisotropy =    21.6022

     12  C    Isotropic =   163.9563   Anisotropy =    17.4579

     13  C    Isotropic =   176.2508   Anisotropy =    18.8984

     14  C    Isotropic =   153.2424   Anisotropy =    26.2502

     15  H    Isotropic =    30.5114   Anisotropy =     4.3308

     16  H    Isotropic =    30.6391   Anisotropy =     6.5113

     17  C    Isotropic =   160.5160   Anisotropy =    13.3493

     18  C    Isotropic =   161.5206   Anisotropy =    19.5707

     19  C    Isotropic =   173.7823   Anisotropy =    12.0781

     20  H    Isotropic =    31.1593   Anisotropy =     9.7807

     21  H    Isotropic =    31.4763   Anisotropy =     9.6437

     22  H    Isotropic =    30.9169   Anisotropy =     4.8889

     23  H    Isotropic =    30.6386   Anisotropy =     9.3531

     24  H    Isotropic =    30.4887   Anisotropy =     7.0443

     25  H    Isotropic =    30.5392   Anisotropy =     9.0645

     26  H    Isotropic =    30.2217   Anisotropy =     6.9941

     27  H    Isotropic =    30.6336   Anisotropy =     5.0535

     28  H    Isotropic =    30.4259   Anisotropy =     7.7213

     29  H    Isotropic =    30.4718   Anisotropy =     8.8893

     30  H    Isotropic =    30.8189   Anisotropy =     6.8749

     31  H    Isotropic =    31.4564   Anisotropy =     8.2325

     32  H    Isotropic =    31.1773   Anisotropy =    10.3873

     33  H    Isotropic =    30.9797   Anisotropy =     6.1509

     34  H    Isotropic =    30.3329   Anisotropy =     8.6505

     35  H    Isotropic =    30.6804   Anisotropy =     5.8515

     36  H    Isotropic =    30.7544   Anisotropy =     6.8253

     37  H    Isotropic =    30.5059   Anisotropy =     9.7018

     38  H    Isotropic =    30.5601   Anisotropy =     6.7204

     39  H    Isotropic =    31.1733   Anisotropy =    10.0930

     40  H    Isotropic =    31.2960   Anisotropy =     7.1905

  Exact polarizability: 176.352  -0.792 154.100  -0.370   3.259 128.503
 Approx polarizability: 215.443  -2.155 211.921   0.555   3.843 196.315

                      1                      2                      3
                      A                      A                      A
 Frequencies --     26.8171                32.8870                37.0652
 Red. masses --      3.1012                 2.7333                 2.3742
 Frc consts  --      0.0013                 0.0017                 0.0019
 IR Inten    --      0.0067                 0.0561                 0.0063

                      4                      5                      6
                      A                      A                      A
 Frequencies --     50.4971                61.1598                81.4194
 Red. masses --      2.8715                 3.2494                 2.8945
 Frc consts  --      0.0043                 0.0072                 0.0113
 IR Inten    --      0.0566                 0.0225                 0.0478

                      7                      8                      9
                      A                      A                      A
 Frequencies --     90.4010               108.8841               123.8249
 Red. masses --      2.2234                 2.6854                 1.8110
 Frc consts  --      0.0107                 0.0188                 0.0164
 IR Inten    --      0.1974                 0.2235                 0.0827

                     10                     11                     12
                      A                      A                      A
 Frequencies --    150.7937               162.0240               202.3010
 Red. masses --      2.0079                 2.0804                 1.6490
 Frc consts  --      0.0269                 0.0322                 0.0398
 IR Inten    --      0.0531                 0.0480                 0.0502

                     13                     14                     15
                      A                      A                      A
 Frequencies --    224.0917               230.4413               240.7925
 Red. masses --      1.5266                 2.9053                 1.4260
 Frc consts  --      0.0452                 0.0909                 0.0487
 IR Inten    --      0.1741                 0.4572                 0.1745

                     16                     17                     18
                      A                      A                      A
 Frequencies --    260.3845               275.0094               307.7851
 Red. masses --      1.4682                 1.7809                 2.0343
 Frc consts  --      0.0586                 0.0794                 0.1135
 IR Inten    --      0.1520                 0.1063                 0.4525

                     19                     20                     21
                      A                      A                      A
 Frequencies --    320.7007               322.3092               376.6536
 Red. masses --      3.2611                 1.9492                 1.9864
 Frc consts  --      0.1976                 0.1193                 0.1660
 IR Inten    --      0.3547                 0.0526                 0.2078

                     22                     23                     24
                      A                      A                      A
 Frequencies --    425.3521               444.7707               460.3935
 Red. masses --      2.2886                 1.8787                 2.0693
 Frc consts  --      0.2440                 0.2190                 0.2584
 IR Inten    --      1.4718                 0.6479                 1.3079

                     25                     26                     27
                      A                      A                      A
 Frequencies --    630.7947               647.7755               709.8936
 Red. masses --      3.5571                 3.9489                 1.9421
 Frc consts  --      0.8339                 0.9763                 0.5767
 IR Inten    --      3.3960                10.6801                 3.8890

                     28                     29                     30
                      A                      A                      A
 Frequencies --    735.7015               751.1291               774.3547
 Red. masses --      1.3987                 1.4017                 1.3262
 Frc consts  --      0.4461                 0.4659                 0.4685
 IR Inten    --      1.5890                16.1290                 6.2829

                     31                     32                     33
                      A                      A                      A
 Frequencies --    787.0962               792.9735               798.3204
 Red. masses --      1.5725                 1.4948                 1.9088
 Frc consts  --      0.5740                 0.5538                 0.7168
 IR Inten    --      0.8624                 4.2336                 2.7964

                     34                     35                     36
                      A                      A                      A
 Frequencies --    862.2906               877.1407               887.6110
 Red. masses --      2.0596                 1.8731                 1.8535
 Frc consts  --      0.9023                 0.8491                 0.8604
 IR Inten    --      0.4799                 0.8396                 4.0833

                     37                     38                     39
                      A                      A                      A
 Frequencies --    900.2559               915.6192               935.7210
 Red. masses --      1.3546                 1.5547                 1.4864
 Frc consts  --      0.6469                 0.7680                 0.7668
 IR Inten    --      0.3668                 3.6511                 8.4848

                     40                     41                     42
                      A                      A                      A
 Frequencies --    981.1021               985.8461               992.3276
 Red. masses --      1.9253                 2.2662                 1.8839
 Frc consts  --      1.0919                 1.2977                 1.0930
 IR Inten    --      6.3352                 2.9180                 1.2755

                     43                     44                     45
                      A                      A                      A
 Frequencies --   1059.7952              1065.7534              1082.7945
 Red. masses --      1.6006                 1.5711                 2.2216
 Frc consts  --      1.0592                 1.0514                 1.5346
 IR Inten    --      1.4385                 0.6173                 0.1135

                     46                     47                     48
                      A                      A                      A
 Frequencies --   1091.5453              1093.2170              1106.0701
 Red. masses --      1.9701                 1.2627                 1.4158
 Frc consts  --      1.3830                 0.8891                 1.0205
 IR Inten    --      1.7629                 1.1872                 3.0332

                     49                     50                     51
                      A                      A                      A
 Frequencies --   1110.1145              1113.5844              1127.7226
 Red. masses --      1.6376                 1.7234                 1.8637
 Frc consts  --      1.1890                 1.2592                 1.3965
 IR Inten    --      1.0595                 2.0010                 1.9842

                     52                     53                     54
                      A                      A                      A
 Frequencies --   1203.6251              1222.6683              1236.5931
 Red. masses --      1.3587                 1.4655                 1.3924
 Frc consts  --      1.1598                 1.2908                 1.2545
 IR Inten    --      3.4792                 3.3645                 6.9306

                     55                     56                     57
                      A                      A                      A
 Frequencies --   1244.4982              1255.3773              1267.4319
 Red. masses --      1.2932                 1.3530                 1.3382
 Frc consts  --      1.1800                 1.2563                 1.2666
 IR Inten    --      4.8207                 0.8251                 0.6862

                     58                     59                     60
                      A                      A                      A
 Frequencies --   1313.2965              1315.1967              1320.6781
 Red. masses --      1.2486                 1.2258                 1.2226
 Frc consts  --      1.2688                 1.2492                 1.2564
 IR Inten    --      1.3919                 4.0937                 1.0996

                     61                     62                     63
                      A                      A                      A
 Frequencies --   1334.4360              1341.2051              1342.6743
 Red. masses --      1.1708                 1.1417                 1.1575
 Frc consts  --      1.2283                 1.2101                 1.2295
 IR Inten    --      2.2159                 0.3114                 8.2029

                     64                     65                     66
                      A                      A                      A
 Frequencies --   1392.8377              1394.2881              1397.3855
 Red. masses --      1.3869                 1.3951                 1.3326
 Frc consts  --      1.5852                 1.5980                 1.5332
 IR Inten    --      2.9354                 7.3339                 7.3208

                     67                     68                     69
                      A                      A                      A
 Frequencies --   1399.9126              1403.2652              1406.7128
 Red. masses --      1.3543                 1.3802                 1.4387
 Frc consts  --      1.5638                 1.6013                 1.6774
 IR Inten    --      2.2597                 5.9841                 7.2348

                     70                     71                     72
                      A                      A                      A
 Frequencies --   1442.4937              1443.0680              1446.9677
 Red. masses --      1.2588                 1.2609                 1.2543
 Frc consts  --      1.5433                 1.5471                 1.5473
 IR Inten    --      9.7789                 4.2476                 5.5157

                     73                     74                     75
                      A                      A                      A
 Frequencies --   1483.3927              1492.4546              1497.1163
 Red. masses --      1.0856                 1.0836                 1.0871
 Frc consts  --      1.4074                 1.4221                 1.4356
 IR Inten    --      2.4467                 2.3859                 3.8737

                     76                     77                     78
                      A                      A                      A
 Frequencies --   1514.4826              1515.5018              1516.8875
 Red. masses --      1.0740                 1.0744                 1.0686
 Frc consts  --      1.4514                 1.4539                 1.4486
 IR Inten    --      2.3190                 1.6467                 0.6073

                     79                     80                     81
                      A                      A                      A
 Frequencies --   1517.9236              1520.8862              1521.2440
 Red. masses --      1.0727                 1.0623                 1.0783
 Frc consts  --      1.4562                 1.4477                 1.4702
 IR Inten    --      1.2018                 0.8084                 1.7568

                     82                     83                     84
                      A                      A                      A
 Frequencies --   1529.9992              1531.9879              1532.8042
 Red. masses --      1.0452                 1.0593                 1.0571
 Frc consts  --      1.4415                 1.4649                 1.4633
 IR Inten    --      8.2935                 7.9354                 2.9828

                     85                     86                     87
                      A                      A                      A
 Frequencies --   1533.1511              1538.4428              1538.8174
 Red. masses --      1.0684                 1.0591                 1.0686
 Frc consts  --      1.4796                 1.4768                 1.4909
 IR Inten    --      9.0241                 6.6873                 2.8421

                     88                     89                     90
                      A                      A                      A
 Frequencies --   3010.5382              3015.9789              3017.8838
 Red. masses --      1.0632                 1.0660                 1.0643
 Frc consts  --      5.6776                 5.7132                 5.7112
 IR Inten    --     14.3294                30.0485                18.5237

                     91                     92                     93
                      A                      A                      A
 Frequencies --   3021.8831              3025.8927              3029.5505
 Red. masses --      1.0639                 1.0627                 1.0633
 Frc consts  --      5.7243                 5.7330                 5.7499
 IR Inten    --     20.1244                32.0772                16.6404

                     94                     95                     96
                      A                      A                      A
 Frequencies --   3030.9043              3033.4259              3035.6775
 Red. masses --      1.0606                 1.0644                 1.0616
 Frc consts  --      5.7403                 5.7704                 5.7641
 IR Inten    --     52.3053                15.2602                 0.7095

                     97                     98                     99
                      A                      A                      A
 Frequencies --   3043.8472              3044.2046              3046.3235
 Red. masses --      1.0383                 1.0379                 1.0415
 Frc consts  --      5.6679                 5.6667                 5.6947
 IR Inten    --     27.1040                23.6493                24.8303

                    100                    101                    102
                      A                      A                      A
 Frequencies --   3054.1485              3059.9353              3061.3795
 Red. masses --      1.0926                 1.0992                 1.0967
 Frc consts  --      6.0044                 6.0642                 6.0557
 IR Inten    --     42.6095                26.8326                 4.6232

                    103                    104                    105
                      A                      A                      A
 Frequencies --   3062.7797              3066.2091              3067.9767
 Red. masses --      1.0967                 1.1011                 1.1000
 Frc consts  --      6.0613                 6.0992                 6.1002
 IR Inten    --     37.9567                52.4126                40.6769

                    106                    107                    108
                      A                      A                      A
 Frequencies --   3077.1692              3082.2663              3085.4797
 Red. masses --      1.1018                 1.0986                 1.0994
 Frc consts  --      6.1469                 6.1495                 6.1666
 IR Inten    --     22.1933                60.1383                33.6828

                    109                    110                    111
                      A                      A                      A
 Frequencies --   3106.9289              3107.3022              3108.4201
 Red. masses --      1.1019                 1.1020                 1.1018
 Frc consts  --      6.2670                 6.2689                 6.2723
 IR Inten    --     36.7533                63.1347                42.3336

                    112                    113                    114
                      A                      A                      A
 Frequencies --   3112.7236              3114.4931              3125.1601
 Red. masses --      1.1016                 1.1017                 1.1005
 Frc consts  --      6.2886                 6.2962                 6.3328
 IR Inten    --     58.1752                49.8969                47.2310

 - Thermochemistry -
 -------------------
 Temperature   298.150 Kelvin.  Pressure   1.00000 Atm.
 Atom     1 has atomic number  6 and mass  12.00000

 Molecular mass:   202.18504 amu.
 Principal axes and moments of inertia in atomic units:
                           1         2         3
     Eigenvalues --  2469.773995085.107886737.58005
           X            0.99999   0.00465   0.00217
           Y           -0.00463   0.99996  -0.00724
           Z           -0.00221   0.00723   0.99997
 This molecule is an asymmetric top.
 Rotational symmetry number  1.
 Warning -- assumption of classical behavior for rotation
           may cause significant error
 Rotational temperatures (Kelvin)      0.03507     0.01703     0.01286
 Rotational constants (GHZ):           0.73073     0.35491     0.26786
 Zero-point vibrational energy     977298.2 (Joules/Mol)
                                  233.57987 (Kcal/Mol)
 Warning -- explicit consideration of  24 degrees of freedom as
           vibrations may cause significant error
 Vibrational temperatures:     38.58    47.32    53.33    72.65    88.00
          (Kelvin)            117.14   130.07   156.66   178.16   216.96
                              233.12   291.07   322.42   331.55   346.45
                              374.64   395.68   442.83   461.42   463.73
                              541.92   611.99   639.93   662.40   907.57
                              932.00  1021.38  1058.51  1080.71  1114.12
                             1132.46  1140.91  1148.60  1240.64  1262.01
                             1277.07  1295.27  1317.37  1346.29  1411.59
                             1418.41  1427.74  1524.81  1533.38  1557.90
                             1570.49  1572.90  1591.39  1597.21  1602.20
                             1622.54  1731.75  1759.15  1779.18  1790.56
                             1806.21  1823.55  1889.54  1892.27  1900.16
                             1919.96  1929.70  1931.81  2003.98  2006.07
                             2010.53  2014.16  2018.99  2023.95  2075.43
                             2076.25  2081.86  2134.27  2147.31  2154.02
                             2179.00  2180.47  2182.46  2183.95  2188.22
                             2188.73  2201.33  2204.19  2205.36  2205.86
                             2213.48  2214.01  4331.49  4339.32  4342.06
                             4347.82  4353.58  4358.85  4360.80  4364.42
                             4367.66  4379.42  4379.93  4382.98  4394.24
                             4402.56  4404.64  4406.66  4411.59  4414.13
                             4427.36  4434.69  4439.32  4470.18  4470.71
                             4472.32  4478.51  4481.06  4496.41

 Zero-point correction=                           0.372233 (Hartree/Particle)
 Thermal correction to Energy=                    0.390748
 Thermal correction to Enthalpy=                  0.391692
 Thermal correction to Gibbs Free Energy=         0.323633
 Sum of electronic and zero-point Energies=           -814.532083
 Sum of electronic and thermal Energies=              -814.513568
 Sum of electronic and thermal Enthalpies=            -814.512624
 Sum of electronic and thermal Free Energies=         -814.580684

                     E (Thermal)             CV                S
                      KCal/Mol        Cal/Mol-Kelvin    Cal/Mol-Kelvin
 Total                  245.198             66.222            143.243
 Electronic               0.000              0.000              0.000
 Translational            0.889              2.981             41.817
 Rotational               0.889              2.981             32.803
 Vibrational            243.421             60.260             68.623
 Vibration     1          0.593              1.984              6.052
 Vibration     2          0.594              1.983              5.647
 Vibration     3          0.594              1.982              5.410
 Vibration     4          0.595              1.977              4.798
 Vibration     5          0.597              1.973              4.419
 Vibration     6          0.600              1.962              3.856
 Vibration     7          0.602              1.956              3.651
 Vibration     8          0.606              1.942              3.289
 Vibration     9          0.610              1.929              3.040
 Vibration    10          0.618              1.902              2.662
 Vibration    11          0.622              1.889              2.526
 Vibration    12          0.639              1.837              2.112
 Vibration    13          0.649              1.804              1.926
 Vibration    14          0.652              1.794              1.876
 Vibration    15          0.658              1.778              1.797
 Vibration    16          0.668              1.745              1.659
 Vibration    17          0.677              1.720              1.565
 Vibration    18          0.698              1.659              1.374
 Vibration    19          0.706              1.634              1.307
 Vibration    20          0.707              1.631              1.298
 Vibration    21          0.747              1.520              1.053
 Vibration    22          0.787              1.415              0.874
 Vibration    23          0.804              1.372              0.812
 Vibration    24          0.818              1.338              0.765

 Optimization completed.
    -- Stationary point found.
 Normal termination of Gaussian 16 at Sun Aug 23 07:14:54 2020.
 Gaussian 16:  ES64L-G16RevA.03 25-Dec-2016

 ----------------------------------------------------------------------
 # TD(NStates=10, Root=1) B3LYP/6-31G* scf=qc volume pop=NPA density=cu
 rrent Geom=AllCheck Guess=Read
 ----------------------------------------------------------------------

 Structure from the checkpoint file:  "phosphine_2_conf103.chk"
 -------------------
 Title Card Required
 -------------------
 Charge =  0 Multiplicity = 1

                         Standard orientation:
 ---------------------------------------------------------------------
 Center     Atomic      Atomic             Coordinates (Angstroms)
 Number     Number       Type             X           Y           Z
 ---------------------------------------------------------------------
      1          6           0        3.840376   -1.479732    1.024590
      2          6           0        3.309091   -1.314799   -0.404319
      3          6           0        2.106538   -2.211627   -0.742997
      4          6           0        0.798058   -1.922065    0.017470
      5          1           0        0.077884   -2.711574   -0.233973
      6          1           0        0.947419   -1.982683    1.104242
      7         15           0       -0.054100   -0.300505   -0.439444
      8          6           0       -1.774869   -0.763551    0.167127
      9          1           0       -2.090239   -1.602314   -0.467019
     10          1           0       -1.718393   -1.149687    1.196378
     11          6           0       -2.815157    0.364139    0.089006
     12          6           0       -4.239343   -0.066240    0.487479
     13          6           0       -4.893340   -1.070049   -0.469054
     14          6           0        0.527350    0.802123    0.979447
     15          1           0        0.062739    0.434777    1.905278
     16          1           0        1.605642    0.637621    1.097321
     17          6           0        0.264120    2.319106    0.825243
     18          6           0        1.377926    3.119529    0.126618
     19          6           0        1.563379    2.835851   -1.368029
     20          1           0        4.723329   -0.852219    1.192123
     21          1           0        4.130745   -2.520227    1.217264
     22          1           0        3.093840   -1.202662    1.777823
     23          1           0        4.118147   -1.547347   -1.109699
     24          1           0        3.050635   -0.262676   -0.586479
     25          1           0        2.391660   -3.257615   -0.554855
     26          1           0        1.905246   -2.138568   -1.819778
     27          1           0       -2.833811    0.775497   -0.930372
     28          1           0       -2.508523    1.187439    0.746489
     29          1           0       -4.869107    0.832110    0.543567
     30          1           0       -4.218998   -0.486710    1.503222
     31          1           0       -4.932355   -0.672456   -1.490976
     32          1           0       -5.920681   -1.294574   -0.160113
     33          1           0       -4.348033   -2.019935   -0.503781
     34          1           0        0.131663    2.742458    1.830421
     35          1           0       -0.684522    2.494798    0.300605
     36          1           0        2.326013    2.940046    0.654807
     37          1           0        1.159783    4.188584    0.256942
     38          1           0        1.852670    1.797553   -1.559130
     39          1           0        2.339350    3.484567   -1.791898
     40          1           0        0.634616    3.017260   -1.922230
 ---------------------------------------------------------------------

 SCF Done:  E(RB3LYP) =  -814.904316577     a.u. after    1 cycles

 Excitation energies and oscillator strengths:

 Excited State   1:      Singlet-A      6.3862 eV  194.14 nm  f=0.1298  <S**2>=0.000
      57 -> 58         0.69714
 This state for optimization and/or second-order correction.
 Total Energy, E(TD-HF/TD-DFT) =  -814.669626930
 Copying the excited state density for this state as the 1-particle RhoCI density.

 Excited State   2:      Singlet-A      6.5967 eV  187.95 nm  f=0.1122  <S**2>=0.000
      57 -> 59         0.69268

 Excited State   3:      Singlet-A      7.0188 eV  176.65 nm  f=0.0133  <S**2>=0.000
      57 -> 60         0.69855

 Excited State   4:      Singlet-A      7.6091 eV  162.94 nm  f=0.0069  <S**2>=0.000
      57 -> 61         0.66097
      57 -> 62         0.22353

 Excited State   5:      Singlet-A      7.7922 eV  159.11 nm  f=0.0213  <S**2>=0.000
      57 -> 61         0.13363
      57 -> 62        -0.40473
      57 -> 63         0.54223

 Excited State   6:      Singlet-A      7.8535 eV  157.87 nm  f=0.0133  <S**2>=0.000
      57 -> 61        -0.18149
      57 -> 62         0.51540
      57 -> 63         0.42974

 Excited State   7:      Singlet-A      8.0997 eV  153.07 nm  f=0.0031  <S**2>=0.000
      55 -> 58         0.51384
      55 -> 59         0.15219
      56 -> 58        -0.33091
      56 -> 59         0.27060
      57 -> 64        -0.11062

 Excited State   8:      Singlet-A      8.1751 eV  151.66 nm  f=0.0290  <S**2>=0.000
      56 -> 59         0.12015
      57 -> 64         0.67108

 Excited State   9:      Singlet-A      8.3232 eV  148.96 nm  f=0.0185  <S**2>=0.000
      55 -> 58         0.22008
      56 -> 58         0.36342
      57 -> 65         0.54003

 Excited State  10:      Singlet-A      8.3590 eV  148.32 nm  f=0.0398  <S**2>=0.000
      55 -> 59         0.30293
      56 -> 58         0.43093
      56 -> 59         0.22823
      57 -> 65        -0.35113

 The electronic state is 1-A.
 Alpha  occ. eigenvalues --  -77.06361 -10.18016 -10.18003 -10.17985 -10.17957
 Alpha  occ. eigenvalues --  -10.17936 -10.17914 -10.17896 -10.17814 -10.17587
 Alpha  occ. eigenvalues --  -10.17233 -10.17146 -10.16340  -6.53108  -4.69359
 Alpha  occ. eigenvalues --   -4.69352  -4.68872  -0.79831  -0.78850  -0.78466
 Alpha  occ. eigenvalues --   -0.73902  -0.71397  -0.71025  -0.66121  -0.63214
 Alpha  occ. eigenvalues --   -0.63062  -0.57826  -0.56179  -0.55773  -0.51858
 Alpha  occ. eigenvalues --   -0.46532  -0.45812  -0.45079  -0.44682  -0.43952
 Alpha  occ. eigenvalues --   -0.43115  -0.41633  -0.40995  -0.39445  -0.39321
 Alpha  occ. eigenvalues --   -0.38745  -0.38336  -0.37737  -0.36401  -0.36034
 Alpha  occ. eigenvalues --   -0.34954  -0.34482  -0.33139  -0.32839  -0.32716
 Alpha  occ. eigenvalues --   -0.32247  -0.32025  -0.31839  -0.31389  -0.28654
 Alpha  occ. eigenvalues --   -0.28473  -0.21309
 Alpha virt. eigenvalues --    0.05055   0.05762   0.07540   0.09817   0.10196
 Alpha virt. eigenvalues --    0.10629   0.11757   0.12194   0.13090   0.13817
 Alpha virt. eigenvalues --    0.14433   0.14467   0.15047   0.15495   0.16584

 Mulliken charges:
               1
     1  C   -0.447054
     2  C   -0.238444
     3  C   -0.229249
     4  C   -0.424331
     5  H    0.132041
     6  H    0.161843
     7  P    0.344206
     8  C   -0.438024
     9  H    0.155593
    10  H    0.158625
    11  C   -0.221843
    12  C   -0.247875
    13  C   -0.435247
    14  C   -0.435740
    15  H    0.177865
    16  H    0.193797
    17  C   -0.240471
    18  C   -0.250891
    19  C   -0.444597
    20  H    0.140104
    21  H    0.139677
    22  H    0.132851
    23  H    0.122633
    24  H    0.119125
    25  H    0.120012
    26  H    0.121644
    27  H    0.118199
    28  H    0.125776
    29  H    0.124782
    30  H    0.123078
    31  H    0.138896
    32  H    0.136452
    33  H    0.133809
    34  H    0.125694
    35  H    0.130683
    36  H    0.128447
    37  H    0.132777
    38  H    0.133967
    39  H    0.138870
    40  H    0.142318
 Sum of Mulliken charges =   0.00000

 Dipole moment (field-independent basis, Debye):
    X=             -0.1612    Y=             -0.3637    Z=              1.3969  Tot=              1.4524
 Quadrupole moment (field-independent basis, Debye-Ang):
   XX=            -99.9768   YY=            -95.3450   ZZ=            -94.7968
   XY=              0.4701   XZ=              0.7202   YZ=              0.8005

 Summary of Natural Population Analysis:

                                       Natural Population
                Natural  -----------------------------------------------
    Atom  No    Charge         Core      Valence    Rydberg      Total
 -----------------------------------------------------------------------
      C    1   -0.67862      1.99946     4.67117    0.00799     6.67862
      C    2   -0.46215      1.99934     4.45090    0.01191     6.46215
      C    3   -0.46227      1.99933     4.44920    0.01375     6.46227
      C    4   -0.82477      1.99930     4.80348    0.02199     6.82477
      H    5    0.23429      0.00000     0.75953    0.00618     0.76571
      H    6    0.25172      0.00000     0.74543    0.00285     0.74828
      P    7    1.00604      9.99765     3.88880    0.10750    13.99396
      C    8   -0.83734      1.99931     4.81257    0.02546     6.83734
      H    9    0.24189      0.00000     0.75610    0.00200     0.75811
      H   10    0.25204      0.00000     0.74548    0.00248     0.74796
      C   11   -0.46186      1.99932     4.44831    0.01424     6.46186
      C   12   -0.45361      1.99935     4.44293    0.01133     6.45361
      C   13   -0.67733      1.99946     4.67013    0.00774     6.67733
      C   14   -0.74349      1.99928     4.72755    0.01666     6.74349
      H   15    0.26305      0.00000     0.73290    0.00405     0.73695
      H   16    0.25547      0.00000     0.74249    0.00204     0.74453
      C   17   -0.46079      1.99931     4.44804    0.01344     6.46079
      C   18   -0.45490      1.99935     4.44385    0.01170     6.45490
      C   19   -0.68209      1.99944     4.67453    0.00811     6.68209
      H   20    0.22998      0.00000     0.76850    0.00152     0.77002
      H   21    0.22402      0.00000     0.77480    0.00118     0.77598
      H   22    0.21362      0.00000     0.78524    0.00113     0.78638
      H   23    0.22896      0.00000     0.76796    0.00308     0.77104
      H   24    0.20857      0.00000     0.78032    0.01111     0.79143
      H   25    0.22812      0.00000     0.76771    0.00417     0.77188
      H   26    0.22693      0.00000     0.76725    0.00582     0.77307
      H   27    0.22083      0.00000     0.77145    0.00771     0.77917
      H   28    0.22350      0.00000     0.77277    0.00373     0.77650
      H   29    0.22756      0.00000     0.76894    0.00350     0.77244
      H   30    0.22270      0.00000     0.77489    0.00240     0.77730
      H   31    0.22255      0.00000     0.77559    0.00186     0.77745
      H   32    0.22812      0.00000     0.77007    0.00181     0.77188
      H   33    0.21736      0.00000     0.77930    0.00334     0.78264
      H   34    0.23521      0.00000     0.76183    0.00296     0.76479
      H   35    0.22096      0.00000     0.76948    0.00956     0.77904
      H   36    0.22358      0.00000     0.77473    0.00169     0.77642
      H   37    0.23394      0.00000     0.76468    0.00138     0.76606
      H   38    0.20145      0.00000     0.78649    0.01206     0.79855
      H   39    0.23236      0.00000     0.76675    0.00089     0.76764
      H   40    0.22438      0.00000     0.77414    0.00148     0.77562
 =======================================================================
   * Total *   -0.00000     33.98990    79.63628    0.37382   114.00000

 Normal termination of Gaussian 16 at Sun Aug 23 07:23:35 2020.
