 Gaussian 16, Revision A.03,

 ---------------------------------
 # opt=CalcAll B3LYP/6-31G* scf=qc
 ---------------------------------

 -------------------
 Title Card Required
 -------------------
 Symbolic Z-matrix:
 Charge =  0 Multiplicity = 1

 SCF Done:  E(RB3LYP) =  -1333.99032942     a.u. after    8 cycles
 SCF Done:  E(RB3LYP) =  -1333.99809490     a.u. after   13 cycles
 SCF Done:  E(RB3LYP) =  -1333.99892368     a.u. after   15 cycles
 SCF Done:  E(RB3LYP) =  -1333.99897681     a.u. after    9 cycles
 SCF Done:  E(RB3LYP) =  -1333.99898172     a.u. after    8 cycles
 SCF Done:  E(RB3LYP) =  -1333.99897432     a.u. after    3 cycles
 SCF Done:  E(RB3LYP) =  -1333.99897688     a.u. after    4 cycles
 SCF Done:  E(RB3LYP) =  -1333.99897500     a.u. after    6 cycles
 SCF Done:  E(RB3LYP) =  -1333.99897314     a.u. after    4 cycles
 SCF Done:  E(RB3LYP) =  -1333.99897565     a.u. after    2 cycles
 SCF Done:  E(RB3LYP) =  -1333.99897969     a.u. after    2 cycles
 SCF Done:  E(RB3LYP) =  -1333.99897548     a.u. after    2 cycles
 SCF Done:  E(RB3LYP) =  -1333.99897963     a.u. after    3 cycles
 SCF Done:  E(RB3LYP) =  -1333.99897336     a.u. after    2 cycles
 SCF Done:  E(RB3LYP) =  -1333.99897290     a.u. after    2 cycles
 SCF Done:  E(RB3LYP) =  -1333.99897461     a.u. after    2 cycles
 SCF Done:  E(RB3LYP) =  -1333.99897832     a.u. after    2 cycles
 SCF Done:  E(RB3LYP) =  -1333.99897491     a.u. after    2 cycles
 Optimization completed.
    -- Stationary point found.
 Normal termination of Gaussian 16 at Sun Aug 23 16:04:46 2020.

 ----------------------------------------------------------------------
 # freq B3LYP/6-31G* scf=qc volume NMR pop=NPA density=current Geom=All
 Check Guess=Read
 ----------------------------------------------------------------------

 Structure from the checkpoint file:  "phosphine_5_conf202.chk"
 -------------------
 Title Card Required
 -------------------
 Charge =  0 Multiplicity = 1

 SCF Done:  E(RB3LYP) =  -1333.99897491     a.u. after    1 cycles

      1  C    Isotropic =    79.9305   Anisotropy =   137.4458

      2  C    Isotropic =    59.0305   Anisotropy =   162.7838

      3  C    Isotropic =    61.6211   Anisotropy =   173.5113

      4  C    Isotropic =    60.7092   Anisotropy =   171.8944

      5  C    Isotropic =    80.0704   Anisotropy =   136.7296

      6  C    Isotropic =    32.6551   Anisotropy =    98.8315

      7  F    Isotropic =   295.7768   Anisotropy =   113.0341

      8  P    Isotropic =   366.2443   Anisotropy =    40.0156

      9  C    Isotropic =    61.6058   Anisotropy =   173.5387

     10  C    Isotropic =    60.7301   Anisotropy =   171.8930

     11  C    Isotropic =    80.0682   Anisotropy =   136.7436

     12  C    Isotropic =    32.6765   Anisotropy =    98.7916

     13  C    Isotropic =    79.9443   Anisotropy =   137.4437

     14  C    Isotropic =    59.0497   Anisotropy =   162.8024

     15  F    Isotropic =   295.8018   Anisotropy =   112.9654

     16  C    Isotropic =    61.6274   Anisotropy =   173.4825

     17  C    Isotropic =    59.0262   Anisotropy =   162.7902

     18  C    Isotropic =    79.9248   Anisotropy =   137.4332

     19  C    Isotropic =    32.6619   Anisotropy =    98.8276

     20  C    Isotropic =    80.0628   Anisotropy =   136.7219

     21  C    Isotropic =    60.7005   Anisotropy =   171.8890

     22  F    Isotropic =   295.7986   Anisotropy =   113.0587

     23  H    Isotropic =    25.3582   Anisotropy =     4.2589

     24  H    Isotropic =    24.6175   Anisotropy =     8.9192

     25  H    Isotropic =    25.3637   Anisotropy =    12.0152

     26  H    Isotropic =    25.4671   Anisotropy =     5.7355

     27  H    Isotropic =    25.3623   Anisotropy =    12.0307

     28  H    Isotropic =    25.4647   Anisotropy =     5.7398

     29  H    Isotropic =    25.3621   Anisotropy =     4.2521

     30  H    Isotropic =    24.6195   Anisotropy =     8.9257

     31  H    Isotropic =    24.6186   Anisotropy =     8.9206

     32  H    Isotropic =    25.3571   Anisotropy =     4.2604

     33  H    Isotropic =    25.4658   Anisotropy =     5.7369

     34  H    Isotropic =    25.3625   Anisotropy =    12.0202

  Exact polarizability: 226.211  -0.037 226.108   0.026  -0.041 167.745
 Approx polarizability: 337.870  -0.081 337.679   0.055  -0.095 314.911

                      1                      2                      3
                      A                      A                      A
 Frequencies --     23.1367                24.1955                37.2870
 Red. masses --      4.0531                 4.0439                 9.1527
 Frc consts  --      0.0013                 0.0014                 0.0075
 IR Inten    --      0.2512                 0.2524                 0.0959

                      4                      5                      6
                      A                      A                      A
 Frequencies --     37.4097                39.7996                50.6016
 Red. masses --      8.9782                 3.7591                 9.9576
 Frc consts  --      0.0074                 0.0035                 0.0150
 IR Inten    --      0.0920                 0.0069                 0.1151

                      7                      8                      9
                      A                      A                      A
 Frequencies --    132.8869               145.3987               145.6524
 Red. masses --      8.0483                 8.3656                 8.3692
 Frc consts  --      0.0837                 0.1042                 0.1046
 IR Inten    --      0.0230                 0.5224                 0.5184

                     10                     11                     12
                      A                      A                      A
 Frequencies --    208.9542               219.0445               219.1737
 Red. masses --      8.0488                 6.9846                 6.9914
 Frc consts  --      0.2071                 0.1974                 0.1979
 IR Inten    --      0.2896                 0.5226                 0.5268

                     13                     14                     15
                      A                      A                      A
 Frequencies --    307.9189               336.0025               336.0982
 Red. masses --      8.4343                 8.3066                 8.3119
 Frc consts  --      0.4712                 0.5525                 0.5532
 IR Inten    --      1.0287                 0.0438                 0.0457

                     16                     17                     18
                      A                      A                      A
 Frequencies --    397.1371               404.1198               404.1784
 Red. masses --      7.7459                 8.0137                 8.0352
 Frc consts  --      0.7198                 0.7711                 0.7734
 IR Inten    --      0.3017                10.1291                10.0794

                     19                     20                     21
                      A                      A                      A
 Frequencies --    420.5747               420.6494               424.6300
 Red. masses --      3.2809                 3.2795                 3.1327
 Frc consts  --      0.3419                 0.3419                 0.3328
 IR Inten    --      1.1504                 1.1029                 0.0241

                     22                     23                     24
                      A                      A                      A
 Frequencies --    435.0347               435.1205               463.4337
 Red. masses --      6.1410                 6.1536                 6.6363
 Frc consts  --      0.6848                 0.6864                 0.8398
 IR Inten    --     18.9594                19.0200                 7.3806

                     25                     26                     27
                      A                      A                      A
 Frequencies --    533.0065               533.1619               535.4338
 Red. masses --      2.8107                 2.8103                 2.9070
 Frc consts  --      0.4705                 0.4707                 0.4910
 IR Inten    --     21.8459                21.8415                13.4855

                     28                     29                     30
                      A                      A                      A
 Frequencies --    608.0450               629.9639               630.0136
 Red. masses --      7.9077                 7.8321                 7.8287
 Frc consts  --      1.7225                 1.8313                 1.8308
 IR Inten    --      0.0088                 0.0383                 0.0387

                     31                     32                     33
                      A                      A                      A
 Frequencies --    648.2343               648.4001               648.4378
 Red. masses --      7.2771                 7.3790                 7.3796
 Frc consts  --      1.8017                 1.8278                 1.8282
 IR Inten    --      0.0054                 0.1282                 0.1282

                     34                     35                     36
                      A                      A                      A
 Frequencies --    715.0895               715.6421               715.7378
 Red. masses --      4.8080                 4.8268                 4.8299
 Frc consts  --      1.4485                 1.4565                 1.4578
 IR Inten    --      1.0234                 3.9393                 3.9717

                     37                     38                     39
                      A                      A                      A
 Frequencies --    835.7398               835.7876               836.8793
 Red. masses --      1.2649                 1.2611                 1.3242
 Frc consts  --      0.5205                 0.5190                 0.5464
 IR Inten    --      0.6477                 0.5368                10.9074

                     40                     41                     42
                      A                      A                      A
 Frequencies --    839.5103               839.5516               839.7295
 Red. masses --      3.2676                 3.3007                 3.9325
 Frc consts  --      1.3568                 1.3707                 1.6338
 IR Inten    --     61.5573                59.6733                20.7474

                     43                     44                     45
                      A                      A                      A
 Frequencies --    843.5937               843.6450               843.9422
 Red. masses --      1.9675                 1.9809                 1.7071
 Frc consts  --      0.8250                 0.8307                 0.7164
 IR Inten    --     10.4331                10.2160                11.8923

                     46                     47                     48
                      A                      A                      A
 Frequencies --    958.5885               958.6276               959.8047
 Red. masses --      1.2559                 1.2558                 1.2580
 Frc consts  --      0.6800                 0.6800                 0.6828
 IR Inten    --      0.1756                 0.1677                 0.3518

                     49                     50                     51
                      A                      A                      A
 Frequencies --    969.8448               969.8699               973.0972
 Red. masses --      1.3358                 1.3356                 1.3211
 Frc consts  --      0.7403                 0.7402                 0.7371
 IR Inten    --      0.0320                 0.0323                 0.3110

                     52                     53                     54
                      A                      A                      A
 Frequencies --   1034.6811              1034.7665              1035.1656
 Red. masses --      3.0242                 3.0300                 3.0216
 Frc consts  --      1.9075                 1.9115                 1.9077
 IR Inten    --      8.0127                 7.9327                 0.0988

                     55                     56                     57
                      A                      A                      A
 Frequencies --   1102.7179              1103.0334              1108.6302
 Red. masses --      3.6665                 3.6663                 3.5552
 Frc consts  --      2.6268                 2.6282                 2.5745
 IR Inten    --     19.2356                19.2504                 1.9325

                     58                     59                     60
                      A                      A                      A
 Frequencies --   1127.4349              1127.6539              1127.8319
 Red. masses --      1.3304                 1.3303                 1.3289
 Frc consts  --      0.9964                 0.9967                 0.9960
 IR Inten    --      0.8414                 1.3955                 6.7749

                     61                     62                     63
                      A                      A                      A
 Frequencies --   1195.0330              1195.4582              1199.3450
 Red. masses --      1.1828                 1.1847                 1.1796
 Frc consts  --      0.9952                 0.9975                 0.9997
 IR Inten    --     60.3198                60.9963                 2.4791

                     64                     65                     66
                      A                      A                      A
 Frequencies --   1285.2391              1285.4188              1286.1567
 Red. masses --      3.7588                 3.7474                 3.7881
 Frc consts  --      3.6582                 3.6481                 3.6920
 IR Inten    --    167.3438               166.9512                38.4370

                     67                     68                     69
                      A                      A                      A
 Frequencies --   1324.1003              1327.1719              1327.6146
 Red. masses --      2.7037                 2.1754                 2.2694
 Frc consts  --      2.7929                 2.2576                 2.3567
 IR Inten    --      8.9156                 3.9759                 3.8289

                     70                     71                     72
                      A                      A                      A
 Frequencies --   1336.5873              1336.7931              1337.0180
 Red. masses --      2.3920                 2.2550                 1.9697
 Frc consts  --      2.5178                 2.3742                 2.0745
 IR Inten    --      0.3582                 0.3658                 0.8751

                     73                     74                     75
                      A                      A                      A
 Frequencies --   1437.8764              1438.0505              1438.1840
 Red. masses --      2.9896                 2.9938                 2.9907
 Frc consts  --      3.6417                 3.6477                 3.6446
 IR Inten    --      6.2977                 3.4470                 2.3842

                     76                     77                     78
                      A                      A                      A
 Frequencies --   1545.4579              1545.6082              1546.4365
 Red. masses --      2.4103                 2.4064                 2.4462
 Frc consts  --      3.3919                 3.3870                 3.4467
 IR Inten    --    116.5270               116.5665                24.0821

                     79                     80                     81
                      A                      A                      A
 Frequencies --   1633.9132              1633.9556              1633.9855
 Red. masses --      6.9734                 6.9702                 6.9627
 Frc consts  --     10.9687                10.9641                10.9528
 IR Inten    --      9.9146                11.2827                13.5569

                     82                     83                     84
                      A                      A                      A
 Frequencies --   1653.5150              1653.5266              1654.3787
 Red. masses --      5.8109                 5.8079                 5.8800
 Frc consts  --      9.3607                 9.3561                 9.4820
 IR Inten    --     82.8357                82.7872                22.5079

                     85                     86                     87
                      A                      A                      A
 Frequencies --   3188.7956              3188.8703              3188.9723
 Red. masses --      1.0892                 1.0892                 1.0892
 Frc consts  --      6.5256                 6.5257                 6.5261
 IR Inten    --      5.6477                 4.0679                 3.6875

                     88                     89                     90
                      A                      A                      A
 Frequencies --   3205.7358              3205.8369              3206.4412
 Red. masses --      1.0878                 1.0878                 1.0879
 Frc consts  --      6.5864                 6.5868                 6.5898
 IR Inten    --      1.9960                 2.0248                 0.3796

                     91                     92                     93
                      A                      A                      A
 Frequencies --   3221.8451              3221.9186              3222.1365
 Red. masses --      1.0942                 1.0942                 1.0941
 Frc consts  --      6.6921                 6.6923                 6.6925
 IR Inten    --      3.5947                 3.2484                11.7198

                     94                     95                     96
                      A                      A                      A
 Frequencies --   3222.6477              3222.6822              3222.8914
 Red. masses --      1.0936                 1.0936                 1.0939
 Frc consts  --      6.6919                 6.6920                 6.6944
 IR Inten    --     12.1284                11.9969                 0.1187

 - Thermochemistry -
 -------------------
 Temperature   298.150 Kelvin.  Pressure   1.00000 Atm.
 Atom     1 has atomic number  6 and mass  12.00000

 Molecular mass:   316.06287 amu.
 Principal axes and moments of inertia in atomic units:
                           1         2         3
     Eigenvalues --  8316.888058320.08486**********
           X            0.99977  -0.02154   0.00001
           Y            0.02154   0.99977  -0.00001
           Z           -0.00001   0.00001   1.00000
 This molecule is an asymmetric top.
 Rotational symmetry number  1.
 Warning -- assumption of classical behavior for rotation
           may cause significant error
 Rotational temperatures (Kelvin)      0.01041     0.01041     0.00597
 Rotational constants (GHZ):           0.21700     0.21691     0.12430
 Zero-point vibrational energy     655250.5 (Joules/Mol)
                                  156.60863 (Kcal/Mol)
 Warning -- explicit consideration of  28 degrees of freedom as
           vibrations may cause significant error
 Vibrational temperatures:     33.29    34.81    53.65    53.82    57.26
          (Kelvin)             72.80   191.19   209.20   209.56   300.64
                              315.16   315.34   443.03   483.43   483.57
                              571.39   581.44   581.52   605.11   605.22
                              610.95   625.92   626.04   666.78   766.88
                              767.10   770.37   874.84   906.38   906.45
                              932.66   932.90   932.96  1028.85  1029.65
                             1029.79  1202.44  1202.51  1204.08  1207.87
                             1207.93  1208.18  1213.74  1213.82  1214.24
                             1379.20  1379.25  1380.94  1395.39  1395.43
                             1400.07  1488.68  1488.80  1489.37  1586.57
                             1587.02  1595.07  1622.13  1622.44  1622.70
                             1719.39  1720.00  1725.59  1849.17  1849.43
                             1850.49  1905.09  1909.50  1910.14  1923.05
                             1923.35  1923.67  2068.78  2069.03  2069.23
                             2223.57  2223.79  2224.98  2350.84  2350.90
                             2350.94  2379.04  2379.06  2380.28  4587.97
                             4588.07  4588.22  4612.34  4612.48  4613.35
                             4635.52  4635.62  4635.94  4636.67  4636.72
                             4637.02

 Zero-point correction=                           0.249572 (Hartree/Particle)
 Thermal correction to Energy=                    0.268007
 Thermal correction to Enthalpy=                  0.268951
 Thermal correction to Gibbs Free Energy=         0.199450
 Sum of electronic and zero-point Energies=          -1333.749403
 Sum of electronic and thermal Energies=             -1333.730968
 Sum of electronic and thermal Enthalpies=           -1333.730024
 Sum of electronic and thermal Free Energies=        -1333.799525

                     E (Thermal)             CV                S
                      KCal/Mol        Cal/Mol-Kelvin    Cal/Mol-Kelvin
 Total                  168.177             71.400            146.278
 Electronic               0.000              0.000              0.000
 Translational            0.889              2.981             43.148
 Rotational               0.889              2.981             35.262
 Vibrational            166.399             65.438             67.868
 Vibration     1          0.593              1.985              6.345
 Vibration     2          0.593              1.985              6.256
 Vibration     3          0.594              1.982              5.398
 Vibration     4          0.594              1.982              5.392
 Vibration     5          0.594              1.981              5.269
 Vibration     6          0.595              1.977              4.794
 Vibration     7          0.613              1.920              2.904
 Vibration     8          0.617              1.908              2.732
 Vibration     9          0.617              1.907              2.728
 Vibration    10          0.642              1.827              2.053
 Vibration    11          0.647              1.812              1.967
 Vibration    12          0.647              1.812              1.966
 Vibration    13          0.698              1.659              1.373
 Vibration    14          0.717              1.604              1.231
 Vibration    15          0.717              1.603              1.231
 Vibration    16          0.764              1.476              0.973
 Vibration    17          0.769              1.461              0.948
 Vibration    18          0.769              1.461              0.947
 Vibration    19          0.783              1.426              0.890
 Vibration    20          0.783              1.425              0.890
 Vibration    21          0.787              1.417              0.876
 Vibration    22          0.796              1.394              0.842
 Vibration    23          0.796              1.394              0.842
 Vibration    24          0.821              1.331              0.756
 Vibration    25          0.888              1.177              0.581
 Vibration    26          0.888              1.177              0.580
 Vibration    27          0.890              1.172              0.575
 Vibration    28          0.967              1.015              0.436

                           ! Non-Optimized Parameters !
 Normal termination of Gaussian 16 at Sun Aug 23 16:18:33 2020.
 Gaussian 16:  ES64L-G16RevA.03 25-Dec-2016

 ----------------------------------------------------------------------
 # TD(NStates=10, Root=1) B3LYP/6-31G* scf=qc volume pop=NPA density=cu
 rrent Geom=AllCheck Guess=Read
 ----------------------------------------------------------------------

 Structure from the checkpoint file:  "phosphine_5_conf203.chk"
 -------------------
 Title Card Required
 -------------------
 Charge =  0 Multiplicity = 1

                         Standard orientation:
 ---------------------------------------------------------------------
 Center     Atomic      Atomic             Coordinates (Angstroms)
 Number     Number       Type             X           Y           Z
 ---------------------------------------------------------------------
      1          6           0        2.017694   -3.517110    0.699313
      2          6           0        1.211254   -2.505128    1.216920
      3          6           0        1.093548   -1.261610    0.571691
      4          6           0        1.830217   -1.049121   -0.604435
      5          6           0        2.651614   -2.047116   -1.130684
      6          6           0        2.727675   -3.267418   -0.469908
      7          9           0        3.519626   -4.236034   -0.973472
      8         15           0       -0.000261   -0.000167    1.374792
      9          6           0        0.545651    1.577823    0.571941
     10          6           0       -0.008717    2.111536   -0.602325
     11          6           0        0.445397    3.321767   -1.128431
     12          6           0        1.466727    3.995641   -0.469438
     13          6           0        2.039965    3.503649    0.697981
     14          6           0        1.566228    2.299467    1.215530
     15          9           0        1.910167    5.165623   -0.972935
     16          6           0       -1.639694   -0.316404    0.571763
     17          6           0       -2.775205    0.204443    1.216638
     18          6           0       -4.054920    0.012376    0.699149
     19          6           0       -4.194057   -0.728067   -0.469562
     20          6           0       -3.099501   -1.273413   -1.129922
     21          6           0       -1.824396   -1.061372   -0.603822
     22          9           0       -5.428982   -0.929273   -0.973013
     23          1           0        2.111882   -4.480324    1.190129
     24          1           0        0.667517   -2.684013    2.141313
     25          1           0        1.770013   -0.093323   -1.115719
     26          1           0        3.227881   -1.891251   -2.037094
     27          1           0       -0.808312    1.583203   -1.112320
     28          1           0        0.020758    3.744388   -2.033432
     29          1           0        2.829015    4.065184    1.187497
     30          1           0        1.994628    1.916521    2.138560
     31          1           0       -2.657953    0.765327    2.140659
     32          1           0       -4.935967    0.413228    1.189680
     33          1           0       -3.252947   -1.850973   -2.035922
     34          1           0       -0.966796   -1.487957   -1.114828
 ---------------------------------------------------------------------

 SCF Done:  E(RB3LYP) =  -1333.99897491     a.u. after    1 cycles

 Excitation energies and oscillator strengths:

 Excited State   1:      Singlet-A      4.5737 eV  271.08 nm  f=0.1354  <S**2>=0.000
      81 -> 82         0.69399
 This state for optimization and/or second-order correction.
 Total Energy, E(TD-HF/TD-DFT) =  -1333.83089366
 Copying the excited state density for this state as the 1-particle RhoCI density.

 Excited State   2:      Singlet-A      4.5749 eV  271.01 nm  f=0.1359  <S**2>=0.000
      81 -> 83         0.69401

 Excited State   3:      Singlet-A      4.5862 eV  270.34 nm  f=0.0089  <S**2>=0.000
      81 -> 84         0.68926

 Excited State   4:      Singlet-A      4.9054 eV  252.75 nm  f=0.0017  <S**2>=0.000
      81 -> 85         0.67627

 Excited State   5:      Singlet-A      4.9060 eV  252.72 nm  f=0.0017  <S**2>=0.000
      81 -> 86         0.67614

 Excited State   6:      Singlet-A      5.2393 eV  236.64 nm  f=0.0075  <S**2>=0.000
      79 -> 82         0.10755
      80 -> 83         0.10786
      81 -> 87         0.67232

 Excited State   7:      Singlet-A      5.4169 eV  228.88 nm  f=0.0000  <S**2>=0.000
      75 -> 84        -0.14224
      77 -> 82        -0.17574
      78 -> 83         0.16911
      79 -> 82         0.27088
      79 -> 83         0.30450
      79 -> 85         0.14873
      80 -> 82        -0.30434
      80 -> 83         0.26908
      80 -> 86        -0.14426

 Excited State   8:      Singlet-A      5.4453 eV  227.69 nm  f=0.0020  <S**2>=0.000
      76 -> 82         0.20923
      77 -> 83        -0.17153
      77 -> 87         0.12111
      78 -> 82         0.17201
      79 -> 84         0.30562
      79 -> 86        -0.14393
      80 -> 84         0.39736
      80 -> 85         0.14422
      81 -> 85        -0.12433

 Excited State   9:      Singlet-A      5.4457 eV  227.67 nm  f=0.0021  <S**2>=0.000
      76 -> 83        -0.20817
      77 -> 82         0.16752
      78 -> 83         0.17442
      78 -> 87         0.12108
      79 -> 84         0.39584
      79 -> 85        -0.14174
      80 -> 84        -0.30815
      80 -> 86        -0.14672
      81 -> 86        -0.12465

 Excited State  10:      Singlet-A      5.6625 eV  218.96 nm  f=0.0008  <S**2>=0.000
      75 -> 84        -0.16543
      76 -> 84        -0.10290
      77 -> 82        -0.24564
      78 -> 83         0.24087
      79 -> 83        -0.26515
      79 -> 85         0.22718
      79 -> 86         0.11197
      80 -> 82         0.31490
      80 -> 85         0.11280
      80 -> 86        -0.23309

 The electronic state is 1-A.
 Alpha  occ. eigenvalues --  -77.09285 -24.70933 -24.70933 -24.70931 -10.27930
 Alpha  occ. eigenvalues --  -10.27929 -10.27927 -10.20802 -10.20801 -10.20800
 Alpha  occ. eigenvalues --  -10.20701 -10.20701 -10.20699 -10.20478 -10.20478
 Alpha  occ. eigenvalues --  -10.20478 -10.20317 -10.20317 -10.20315 -10.20309
 Alpha  occ. eigenvalues --  -10.20309 -10.20308  -6.55986  -4.72248  -4.72248
 Alpha  occ. eigenvalues --   -4.71743  -1.22112  -1.22112  -1.22109  -0.87207
 Alpha  occ. eigenvalues --   -0.86555  -0.86554  -0.77802  -0.76322  -0.76286
 Alpha  occ. eigenvalues --   -0.76285  -0.74868  -0.74866  -0.65458  -0.63138
 Alpha  occ. eigenvalues --   -0.62959  -0.62958  -0.60998  -0.60997  -0.57074
 Alpha  occ. eigenvalues --   -0.54665  -0.54664  -0.54254  -0.49446  -0.49445
 Alpha  occ. eigenvalues --   -0.49381  -0.48019  -0.48018  -0.46310  -0.46309
 Alpha  occ. eigenvalues --   -0.46296  -0.45864  -0.44921  -0.44921  -0.43857
 Alpha  occ. eigenvalues --   -0.43706  -0.43705  -0.42082  -0.40157  -0.40108
 Alpha  occ. eigenvalues --   -0.40107  -0.37161  -0.37159  -0.36439  -0.34997
 Alpha  occ. eigenvalues --   -0.34997  -0.34951  -0.33923  -0.33923  -0.27231
 Alpha  occ. eigenvalues --   -0.26848  -0.26599  -0.26598  -0.25425  -0.25422
 Alpha  occ. eigenvalues --   -0.21918
 Alpha virt. eigenvalues --   -0.02512  -0.02509  -0.02414  -0.01173  -0.01171
 Alpha virt. eigenvalues --   -0.00311   0.05882   0.05888   0.08467   0.10088
 Alpha virt. eigenvalues --    0.10089   0.12847   0.13530   0.13530   0.14052

 Mulliken charges:
               1
     1  C   -0.197942
     2  C   -0.157095
     3  C   -0.108642
     4  C   -0.186095
     5  C   -0.178541
     6  C    0.352124
     7  F   -0.299983
     8  P    0.435511
     9  C   -0.078419
    10  C   -0.152865
    11  C   -0.185540
    12  C    0.391188
    13  C   -0.184771
    14  C   -0.161451
    15  F   -0.282119
    16  C   -0.122350
    17  C   -0.179586
    18  C   -0.183019
    19  C    0.350359
    20  C   -0.188243
    21  C   -0.165217
    22  F   -0.299825
    23  H    0.139987
    24  H    0.137097
    25  H    0.131649
    26  H    0.142349
    27  H    0.178436
    28  H    0.164340
    29  H    0.161195
    30  H    0.158065
    31  H    0.130437
    32  H    0.140483
    33  H    0.144440
    34  H    0.154042
 Sum of Mulliken charges =  -0.00000

 Dipole moment (field-independent basis, Debye):
    X=              0.9282    Y=              3.1305    Z=              1.4567  Tot=              3.5754
 Quadrupole moment (field-independent basis, Debye-Ang):
   XX=           -144.2714   YY=           -134.7642   ZZ=           -121.8254
   XY=              4.2136   XZ=              0.5485   YZ=             -0.6827

 Summary of Natural Population Analysis:

                                       Natural Population
                Natural  -----------------------------------------------
    Atom  No    Charge         Core      Valence    Rydberg      Total
 -----------------------------------------------------------------------
      C    1   -0.32760      1.99899     4.31248    0.01613     6.32760
      C    2   -0.18986      1.99902     4.17537    0.01546     6.18986
      C    3   -0.45406      1.99887     4.43055    0.02464     6.45406
      C    4   -0.27069      1.99900     4.25318    0.01851     6.27069
      C    5   -0.28461      1.99899     4.27083    0.01480     6.28461
      C    6    0.39251      1.99844     3.58122    0.02784     5.60749
      F    7   -0.33514      1.99994     7.32969    0.00550     9.33514
      P    8    1.21009      9.99756     3.74079    0.05156    13.78991
      C    9   -0.38808      1.99891     4.36412    0.02505     6.38808
      C   10   -0.19746      1.99901     4.18227    0.01619     6.19746
      C   11   -0.29970      1.99898     4.28590    0.01482     6.29970
      C   12    0.45581      1.99844     3.51866    0.02709     5.54419
      C   13   -0.30423      1.99899     4.29020    0.01504     6.30423
      C   14   -0.19462      1.99903     4.18022    0.01536     6.19462
      F   15   -0.31940      1.99994     7.31387    0.00559     9.31940
      C   16   -0.47587      1.99888     4.45025    0.02673     6.47587
      C   17   -0.22834      1.99903     4.21297    0.01634     6.22834
      C   18   -0.29916      1.99900     4.28507    0.01510     6.29916
      C   19    0.38812      1.99844     3.58554    0.02791     5.61188
      C   20   -0.30216      1.99899     4.28798    0.01519     6.30216
      C   21   -0.22192      1.99900     4.20567    0.01724     6.22192
      F   22   -0.33513      1.99994     7.32966    0.00553     9.33513
      H   23    0.24865      0.00000     0.75017    0.00118     0.75135
      H   24    0.23712      0.00000     0.76176    0.00111     0.76288
      H   25    0.23712      0.00000     0.76149    0.00139     0.76288
      H   26    0.24937      0.00000     0.74942    0.00121     0.75063
      H   27    0.26304      0.00000     0.73576    0.00119     0.73696
      H   28    0.26013      0.00000     0.73870    0.00117     0.73987
      H   29    0.25822      0.00000     0.74060    0.00118     0.74178
      H   30    0.24766      0.00000     0.75114    0.00120     0.75234
      H   31    0.23247      0.00000     0.76663    0.00090     0.76753
      H   32    0.24804      0.00000     0.75072    0.00124     0.75196
      H   33    0.25073      0.00000     0.74807    0.00120     0.74927
      H   34    0.24894      0.00000     0.74941    0.00165     0.75106
 =======================================================================
   * Total *    0.00000     51.97740   109.59036    0.43224   162.00000

 Normal termination of Gaussian 16 at Sun Aug 23 16:33:50 2020.
