 Gaussian 16, Revision A.03,

 ---------------------------------
 # opt=CalcAll B3LYP/6-31G* scf=qc
 ---------------------------------

 -------------------
 Title Card Required
 -------------------
 Symbolic Z-matrix:
 Charge =  0 Multiplicity = 1

 SCF Done:  E(RB3LYP) =  -1036.27780894     a.u. after    8 cycles
 SCF Done:  E(RB3LYP) =  -1036.28868128     a.u. after   17 cycles
 SCF Done:  E(RB3LYP) =  -1036.29526064     a.u. after   17 cycles
 SCF Done:  E(RB3LYP) =  -1036.29696229     a.u. after   17 cycles
 SCF Done:  E(RB3LYP) =  -1036.29697356     a.u. after   17 cycles
 SCF Done:  E(RB3LYP) =  -1036.29809997     a.u. after   15 cycles
 SCF Done:  E(RB3LYP) =  -1036.29823332     a.u. after   13 cycles
 SCF Done:  E(RB3LYP) =  -1036.29823203     a.u. after    7 cycles
 SCF Done:  E(RB3LYP) =  -1036.29823273     a.u. after    4 cycles
 SCF Done:  E(RB3LYP) =  -1036.29822832     a.u. after    7 cycles
 SCF Done:  E(RB3LYP) =  -1036.29823635     a.u. after    4 cycles
 SCF Done:  E(RB3LYP) =  -1036.29823450     a.u. after    5 cycles
 SCF Done:  E(RB3LYP) =  -1036.29822976     a.u. after    5 cycles
 SCF Done:  E(RB3LYP) =  -1036.29823976     a.u. after    2 cycles
 SCF Done:  E(RB3LYP) =  -1036.29823826     a.u. after    3 cycles
 SCF Done:  E(RB3LYP) =  -1036.29823105     a.u. after    2 cycles
 SCF Done:  E(RB3LYP) =  -1036.29823414     a.u. after    2 cycles
 SCF Done:  E(RB3LYP) =  -1036.29823057     a.u. after    2 cycles
 Optimization completed.
    -- Stationary point found.
 Normal termination of Gaussian 16 at Sun Aug 23 04:13:28 2020.

 ----------------------------------------------------------------------
 # freq B3LYP/6-31G* scf=qc volume NMR pop=NPA density=current Geom=All
 Check Guess=Read
 ----------------------------------------------------------------------

 Structure from the checkpoint file:  "phosphine_1_conf102.chk"
 -------------------
 Title Card Required
 -------------------
 Charge =  0 Multiplicity = 1

 SCF Done:  E(RB3LYP) =  -1036.29823057     a.u. after    1 cycles

      1  C    Isotropic =    68.1853   Anisotropy =   167.3132

      2  C    Isotropic =    68.7421   Anisotropy =   164.1400

      3  C    Isotropic =    61.0425   Anisotropy =   164.1514

      4  C    Isotropic =    56.1151   Anisotropy =   179.4026

      5  C    Isotropic =    62.6145   Anisotropy =   174.0239

      6  C    Isotropic =    68.6706   Anisotropy =   163.8807

      7  P    Isotropic =   361.5314   Anisotropy =    39.8647

      8  C    Isotropic =    56.0797   Anisotropy =   179.4573

      9  C    Isotropic =    62.5946   Anisotropy =   174.0035

     10  C    Isotropic =    68.6813   Anisotropy =   163.8806

     11  C    Isotropic =    68.1648   Anisotropy =   167.3132

     12  C    Isotropic =    68.7290   Anisotropy =   164.1281

     13  C    Isotropic =    61.0257   Anisotropy =   164.1064

     14  C    Isotropic =    56.1665   Anisotropy =   179.4180

     15  C    Isotropic =    60.9753   Anisotropy =   164.0743

     16  C    Isotropic =    68.7257   Anisotropy =   164.1578

     17  C    Isotropic =    68.1477   Anisotropy =   167.3729

     18  C    Isotropic =    68.6753   Anisotropy =   163.8871

     19  C    Isotropic =    62.5346   Anisotropy =   174.0901

     20  H    Isotropic =    25.0202   Anisotropy =     3.6422

     21  H    Isotropic =    24.9272   Anisotropy =     4.5897

     22  H    Isotropic =    24.6166   Anisotropy =     9.2593

     23  H    Isotropic =    25.4062   Anisotropy =    12.2451

     24  H    Isotropic =    25.0492   Anisotropy =     6.0889

     25  H    Isotropic =    25.4047   Anisotropy =    12.2213

     26  H    Isotropic =    25.0487   Anisotropy =     6.0851

     27  H    Isotropic =    25.0218   Anisotropy =     3.6406

     28  H    Isotropic =    24.9285   Anisotropy =     4.5890

     29  H    Isotropic =    24.6134   Anisotropy =     9.2533

     30  H    Isotropic =    24.6096   Anisotropy =     9.2367

     31  H    Isotropic =    24.9235   Anisotropy =     4.5890

     32  H    Isotropic =    25.0171   Anisotropy =     3.6477

     33  H    Isotropic =    25.0473   Anisotropy =     6.0848

     34  H    Isotropic =    25.3970   Anisotropy =    12.2115

  Exact polarizability: 224.265  -0.107 223.979  -0.104  -0.113 165.063
 Approx polarizability: 331.171  -0.249 330.579  -0.245  -0.262 308.076

                      1                      2                      3
                      A                      A                      A
 Frequencies --     22.7152                22.9030                38.2544
 Red. masses --      3.7983                 3.7968                 3.6895
 Frc consts  --      0.0012                 0.0012                 0.0032
 IR Inten    --      0.2812                 0.2832                 0.0014

                      4                      5                      6
                      A                      A                      A
 Frequencies --     53.2909                53.4590                70.6001
 Red. masses --      5.2489                 5.2535                 5.1678
 Frc consts  --      0.0088                 0.0088                 0.0152
 IR Inten    --      0.0831                 0.0860                 0.3095

                      7                      8                      9
                      A                      A                      A
 Frequencies --    181.4037               202.3300               202.6988
 Red. masses --      4.5609                 4.6446                 4.6414
 Frc consts  --      0.0884                 0.1120                 0.1124
 IR Inten    --      0.3531                 1.1366                 1.1388

                     10                     11                     12
                      A                      A                      A
 Frequencies --    245.5444               259.6977               259.9272
 Red. masses --      5.7383                 4.7188                 4.7220
 Frc consts  --      0.2038                 0.1875                 0.1880
 IR Inten    --      0.4829                 0.2234                 0.2264

                     13                     14                     15
                      A                      A                      A
 Frequencies --    408.7976               408.8411               412.3678
 Red. masses --      3.0796                 3.0790                 3.5951
 Frc consts  --      0.3032                 0.3032                 0.3602
 IR Inten    --      1.9560                 1.9748                 0.1604

                     16                     17                     18
                      A                      A                      A
 Frequencies --    417.0774               429.3340               429.5003
 Red. masses --      4.6126                 7.3079                 7.3079
 Frc consts  --      0.4727                 0.7937                 0.7943
 IR Inten    --      0.5620                 7.6623                 7.7340

                     19                     20                     21
                      A                      A                      A
 Frequencies --    509.2981               509.5459               516.3218
 Red. masses --      4.2462                 4.2460                 4.5886
 Frc consts  --      0.6489                 0.6495                 0.7207
 IR Inten    --     26.0227                26.1782                11.9859

                     22                     23                     24
                      A                      A                      A
 Frequencies --    632.7116               632.7465               633.3602
 Red. masses --      6.4270                 6.4272                 6.4369
 Frc consts  --      1.5159                 1.5161                 1.5213
 IR Inten    --      0.1801                 0.1806                 0.0162

                     25                     26                     27
                      A                      A                      A
 Frequencies --    691.8492               705.0962               705.1964
 Red. masses --      6.5813                 5.7422                 5.7279
 Frc consts  --      1.8560                 1.6820                 1.6783
 IR Inten    --      0.7742                 1.1570                 1.1757

                     28                     29                     30
                      A                      A                      A
 Frequencies --    712.1980               712.2778               713.2606
 Red. masses --      2.1961                 2.2016                 2.1340
 Frc consts  --      0.6563                 0.6581                 0.6396
 IR Inten    --     26.5059                26.2183                16.5934

                     31                     32                     33
                      A                      A                      A
 Frequencies --    761.3984               762.8690               762.9374
 Red. masses --      1.6153                 1.6469                 1.6495
 Frc consts  --      0.5517                 0.5647                 0.5657
 IR Inten    --     19.2094                24.9799                24.8763

                     34                     35                     36
                      A                      A                      A
 Frequencies --    866.1540               866.1831               868.7408
 Red. masses --      1.2478                 1.2477                 1.2462
 Frc consts  --      0.5516                 0.5515                 0.5542
 IR Inten    --      0.2260                 0.2249                 0.1332

                     37                     38                     39
                      A                      A                      A
 Frequencies --    932.9073               932.9493               934.2016
 Red. masses --      1.3444                 1.3442                 1.3386
 Frc consts  --      0.6894                 0.6893                 0.6883
 IR Inten    --      1.2693                 1.2658                 0.0305

                     40                     41                     42
                      A                      A                      A
 Frequencies --    975.7803               975.8102               977.6274
 Red. masses --      1.3614                 1.3612                 1.3556
 Frc consts  --      0.7638                 0.7636                 0.7634
 IR Inten    --      0.0150                 0.0175                 0.1421

                     43                     44                     45
                      A                      A                      A
 Frequencies --   1000.3592              1000.3828              1001.0932
 Red. masses --      1.2544                 1.2542                 1.2526
 Frc consts  --      0.7396                 0.7395                 0.7396
 IR Inten    --      0.0795                 0.0812                 0.0002

                     46                     47                     48
                      A                      A                      A
 Frequencies --   1015.3512              1015.3767              1015.7556
 Red. masses --      6.3104                 6.3113                 6.3096
 Frc consts  --      3.8330                 3.8338                 3.8356
 IR Inten    --      4.3614                 4.3688                 0.0474

                     49                     50                     51
                      A                      A                      A
 Frequencies --   1052.6952              1052.7437              1052.9374
 Red. masses --      3.3146                 3.3152                 3.2537
 Frc consts  --      2.1641                 2.1647                 2.1254
 IR Inten    --      2.0797                 2.0869                 0.0486

                     52                     53                     54
                      A                      A                      A
 Frequencies --   1107.8473              1108.0312              1109.4628
 Red. masses --      1.8821                 1.8728                 1.6554
 Frc consts  --      1.3610                 1.3547                 1.2005
 IR Inten    --      4.2176                 4.0859                 2.9011

                     55                     56                     57
                      A                      A                      A
 Frequencies --   1110.7158              1110.8247              1116.0414
 Red. masses --      2.1858                 2.2091                 2.6128
 Frc consts  --      1.5888                 1.6060                 1.9175
 IR Inten    --      9.2982                 9.6548                 1.2108

                     58                     59                     60
                      A                      A                      A
 Frequencies --   1193.4930              1193.9136              1193.9316
 Red. masses --      1.1034                 1.1000                 1.1000
 Frc consts  --      0.9260                 0.9238                 0.9239
 IR Inten    --      0.0012                 0.1303                 0.1293

                     61                     62                     63
                      A                      A                      A
 Frequencies --   1219.2422              1219.3729              1220.8255
 Red. masses --      1.1476                 1.1477                 1.1473
 Frc consts  --      1.0051                 1.0054                 1.0075
 IR Inten    --      6.0082                 6.0776                 0.3645

                     64                     65                     66
                      A                      A                      A
 Frequencies --   1324.9728              1328.7012              1328.7711
 Red. masses --      3.4875                 3.4885                 3.4933
 Frc consts  --      3.6073                 3.6286                 3.6340
 IR Inten    --      2.6397                 2.4500                 2.4315

                     67                     68                     69
                      A                      A                      A
 Frequencies --   1365.1560              1365.2746              1365.6162
 Red. masses --      1.6575                 1.6536                 1.6453
 Frc consts  --      1.8200                 1.8160                 1.8078
 IR Inten    --      0.2734                 0.3361                 2.7761

                     70                     71                     72
                      A                      A                      A
 Frequencies --   1480.4885              1480.9694              1480.9806
 Red. masses --      2.1104                 2.1154                 2.1154
 Frc consts  --      2.7254                 2.7336                 2.7336
 IR Inten    --     16.5564                 6.6666                 6.6249

                     73                     74                     75
                      A                      A                      A
 Frequencies --   1531.1036              1531.5811              1531.6453
 Red. masses --      2.0153                 1.9986                 1.9981
 Frc consts  --      2.7836                 2.7623                 2.7618
 IR Inten    --      2.0535                10.1022                10.1508

                     76                     77                     78
                      A                      A                      A
 Frequencies --   1630.1631              1630.4476              1630.4581
 Red. masses --      5.1003                 5.1137                 5.1113
 Frc consts  --      7.9856                 8.0094                 8.0057
 IR Inten    --      0.3949                 0.0494                 0.0447

                     79                     80                     81
                      A                      A                      A
 Frequencies --   1646.1627              1646.1840              1647.9742
 Red. masses --      5.2716                 5.2704                 5.2825
 Frc consts  --      8.4166                 8.4150                 8.4526
 IR Inten    --      3.5250                 3.4999                 0.3193

                     82                     83                     84
                      A                      A                      A
 Frequencies --   3176.0485              3176.0982              3176.1336
 Red. masses --      1.0854                 1.0853                 1.0853
 Frc consts  --      6.4508                 6.4507                 6.4507
 IR Inten    --      2.1685                 1.9971                 1.8689

                     85                     86                     87
                      A                      A                      A
 Frequencies --   3182.6100              3182.6579              3182.7243
 Red. masses --      1.0875                 1.0875                 1.0876
 Frc consts  --      6.4900                 6.4902                 6.4910
 IR Inten    --      0.7326                 0.7592                 0.1857

                     88                     89                     90
                      A                      A                      A
 Frequencies --   3192.8155              3192.8385              3192.9626
 Red. masses --      1.0916                 1.0916                 1.0917
 Frc consts  --      6.5565                 6.5567                 6.5577
 IR Inten    --     10.2502                10.4430                47.3116

                     91                     92                     93
                      A                      A                      A
 Frequencies --   3203.8060              3203.9259              3204.3134
 Red. masses --      1.0940                 1.0941                 1.0942
 Frc consts  --      6.6163                 6.6172                 6.6196
 IR Inten    --     40.7453                38.9275                 7.2158

                     94                     95                     96
                      A                      A                      A
 Frequencies --   3209.9316              3210.1086              3210.9719
 Red. masses --      1.0958                 1.0957                 1.0956
 Frc consts  --      6.6523                 6.6522                 6.6555
 IR Inten    --     20.7997                19.8457                16.2797

 - Thermochemistry -
 -------------------
 Temperature   298.150 Kelvin.  Pressure   1.00000 Atm.
 Atom     1 has atomic number  6 and mass  12.00000

 Molecular mass:   262.09114 amu.
 Principal axes and moments of inertia in atomic units:
                           1         2         3
     Eigenvalues --  5161.239525164.655538680.33156
           X            0.99941  -0.03422  -0.00002
           Y            0.03422   0.99941  -0.00003
           Z            0.00003   0.00003   1.00000
 This molecule is an asymmetric top.
 Rotational symmetry number  1.
 Warning -- assumption of classical behavior for rotation
           may cause significant error
 Rotational temperatures (Kelvin)      0.01678     0.01677     0.00998
 Rotational constants (GHZ):           0.34967     0.34944     0.20791
 Zero-point vibrational energy     719943.5 (Joules/Mol)
                                  172.07063 (Kcal/Mol)
 Warning -- explicit consideration of  21 degrees of freedom as
           vibrations may cause significant error
 Vibrational temperatures:     32.68    32.95    55.04    76.67    76.92
          (Kelvin)            101.58   261.00   291.11   291.64   353.28
                              373.65   373.98   588.17   588.23   593.31
                              600.08   617.72   617.96   732.77   733.12
                              742.87   910.33   910.38   911.26   995.42
                             1014.48  1014.62  1024.69  1024.81  1026.22
                             1095.48  1097.60  1097.70  1246.20  1246.24
                             1249.92  1342.25  1342.31  1344.11  1403.93
                             1403.97  1406.59  1439.29  1439.33  1440.35
                             1460.86  1460.90  1461.45  1514.59  1514.66
                             1514.94  1593.95  1594.21  1596.27  1598.07
                             1598.23  1605.73  1717.17  1717.78  1717.80
                             1754.22  1754.41  1756.50  1906.34  1911.70
                             1911.81  1964.16  1964.33  1964.82  2130.09
                             2130.78  2130.80  2202.92  2203.60  2203.70
                             2345.44  2345.85  2345.87  2368.46  2368.49
                             2371.07  4569.63  4569.70  4569.75  4579.07
                             4579.13  4579.23  4593.75  4593.78  4593.96
                             4609.56  4609.73  4610.29  4618.38  4618.63
                             4619.87

 Zero-point correction=                           0.274212 (Hartree/Particle)
 Thermal correction to Energy=                    0.290137
 Thermal correction to Enthalpy=                  0.291081
 Thermal correction to Gibbs Free Energy=         0.227707
 Sum of electronic and zero-point Energies=          -1036.024019
 Sum of electronic and thermal Energies=             -1036.008094
 Sum of electronic and thermal Enthalpies=           -1036.007150
 Sum of electronic and thermal Free Energies=        -1036.070523

                     E (Thermal)             CV                S
                      KCal/Mol        Cal/Mol-Kelvin    Cal/Mol-Kelvin
 Total                  182.063             62.540            133.381
 Electronic               0.000              0.000              0.000
 Translational            0.889              2.981             42.590
 Rotational               0.889              2.981             33.803
 Vibrational            180.286             56.578             56.988
 Vibration     1          0.593              1.985              6.381
 Vibration     2          0.593              1.985              6.365
 Vibration     3          0.594              1.982              5.347
 Vibration     4          0.596              1.976              4.691
 Vibration     5          0.596              1.976              4.685
 Vibration     6          0.598              1.968              4.137
 Vibration     7          0.630              1.865              2.314
 Vibration     8          0.639              1.837              2.112
 Vibration     9          0.639              1.836              2.108
 Vibration    10          0.660              1.770              1.762
 Vibration    11          0.668              1.746              1.664
 Vibration    12          0.668              1.746              1.662
 Vibration    13          0.773              1.451              0.931
 Vibration    14          0.773              1.451              0.931
 Vibration    15          0.776              1.443              0.918
 Vibration    16          0.780              1.433              0.902
 Vibration    17          0.791              1.406              0.861
 Vibration    18          0.791              1.406              0.860
 Vibration    19          0.864              1.229              0.635
 Vibration    20          0.865              1.229              0.635
 Vibration    21          0.871              1.214              0.619

                           ! Non-Optimized Parameters !
 Normal termination of Gaussian 16 at Sun Aug 23 04:24:21 2020.
 Gaussian 16:  ES64L-G16RevA.03 25-Dec-2016

 ----------------------------------------------------------------------
 # TD(NStates=10, Root=1) B3LYP/6-31G* scf=qc volume pop=NPA density=cu
 rrent Geom=AllCheck Guess=Read
 ----------------------------------------------------------------------

 Structure from the checkpoint file:  "phosphine_1_conf103.chk"
 -------------------
 Title Card Required
 -------------------
 Charge =  0 Multiplicity = 1

                         Standard orientation:
 ---------------------------------------------------------------------
 Center     Atomic      Atomic             Coordinates (Angstroms)
 Number     Number       Type             X           Y           Z
 ---------------------------------------------------------------------
      1          6           0       -2.845238   -3.198644    0.650204
      2          6           0       -3.189705   -2.492600   -0.504399
      3          6           0       -2.312641   -1.544337   -1.030326
      4          6           0       -1.085300   -1.270409   -0.403116
      5          6           0       -0.749935   -1.988795    0.754688
      6          6           0       -1.622910   -2.946791    1.275101
      7         15           0        0.000251   -0.000101   -1.206646
      8          6           0       -0.557266    1.574718   -0.402361
      9          6           0       -1.342510    1.642785    0.758622
     10          6           0       -1.735738    2.877407    1.279893
     11          6           0       -1.347361    4.062205    0.652624
     12          6           0       -0.568309    4.008181   -0.505121
     13          6           0       -0.185502    2.774832   -1.031820
     14          6           0        1.642915   -0.304589   -0.402556
     15          6           0        2.499430   -1.221094   -1.035809
     16          6           0        3.759050   -1.505809   -0.509018
     17          6           0        4.192207   -0.863207    0.652706
     18          6           0        3.357134    0.060006    1.283948
     19          6           0        2.091309    0.336283    0.762513
     20          1           0       -3.522684   -3.945259    1.056308
     21          1           0       -4.136339   -2.687841   -1.001683
     22          1           0       -2.579450   -1.012634   -1.940952
     23          1           0        0.198334   -1.802819    1.249936
     24          1           0       -1.346202   -3.496173    2.171522
     25          1           0       -1.651939    0.728302    1.255678
     26          1           0       -2.346268    2.911951    2.178790
     27          1           0       -1.655323    5.021903    1.059354
     28          1           0       -0.267810    4.925839   -1.004250
     29          1           0        0.404663    2.740478   -1.944867
     30          1           0        2.176897   -1.711058   -1.951788
     31          1           0        4.405997   -2.220575   -1.011107
     32          1           0        5.177345   -1.075989    1.059548
     33          1           0        3.689865    0.567479    2.186010
     34          1           0        1.451366    1.057056    1.262551
 ---------------------------------------------------------------------

 SCF Done:  E(RB3LYP) =  -1036.29823057     a.u. after    1 cycles

 Excitation energies and oscillator strengths:

 Excited State   1:      Singlet-A      4.5085 eV  275.00 nm  f=0.1270  <S**2>=0.000
      69 -> 70         0.69707
 This state for optimization and/or second-order correction.
 Total Energy, E(TD-HF/TD-DFT) =  -1036.13254462
 Copying the excited state density for this state as the 1-particle RhoCI density.

 Excited State   2:      Singlet-A      4.5125 eV  274.76 nm  f=0.1287  <S**2>=0.000
      69 -> 71         0.69701

 Excited State   3:      Singlet-A      4.7571 eV  260.63 nm  f=0.0022  <S**2>=0.000
      67 -> 70        -0.12379
      68 -> 71        -0.12467
      69 -> 72         0.67465

 Excited State   4:      Singlet-A      5.0573 eV  245.16 nm  f=0.0002  <S**2>=0.000
      66 -> 70         0.16404
      67 -> 70         0.12524
      68 -> 71        -0.12466
      69 -> 74         0.62962

 Excited State   5:      Singlet-A      5.0589 eV  245.08 nm  f=0.0002  <S**2>=0.000
      66 -> 71        -0.16523
      67 -> 71         0.12671
      68 -> 70         0.12634
      69 -> 75         0.62871

 Excited State   6:      Singlet-A      5.1509 eV  240.70 nm  f=0.0085  <S**2>=0.000
      69 -> 73         0.67900

 Excited State   7:      Singlet-A      5.4274 eV  228.44 nm  f=0.0147  <S**2>=0.000
      63 -> 72         0.16603
      64 -> 74         0.14746
      65 -> 75         0.14343
      67 -> 70         0.42706
      68 -> 71         0.41459
      69 -> 72         0.16514

 Excited State   8:      Singlet-A      5.5135 eV  224.88 nm  f=0.0005  <S**2>=0.000
      63 -> 74         0.14286
      64 -> 72         0.22536
      64 -> 75        -0.10726
      65 -> 72         0.17034
      65 -> 74        -0.10483
      66 -> 70        -0.22664
      67 -> 70        -0.25591
      68 -> 71         0.27359
      68 -> 72        -0.16257
      69 -> 74         0.28528

 Excited State   9:      Singlet-A      5.5154 eV  224.79 nm  f=0.0004  <S**2>=0.000
      63 -> 75         0.14373
      64 -> 72        -0.17103
      64 -> 74        -0.10463
      65 -> 72         0.22547
      65 -> 75         0.10502
      66 -> 71         0.22442
      67 -> 71        -0.26285
      67 -> 72        -0.16388
      68 -> 70        -0.27152
      69 -> 75         0.28708

 Excited State  10:      Singlet-A      5.6181 eV  220.69 nm  f=0.0009  <S**2>=0.000
      67 -> 71        -0.47484
      68 -> 70         0.48906

 The electronic state is 1-A.
 Alpha  occ. eigenvalues --  -77.08113 -10.19448 -10.19446 -10.19446 -10.19151
 Alpha  occ. eigenvalues --  -10.19145 -10.19142 -10.19121 -10.19116 -10.19115
 Alpha  occ. eigenvalues --  -10.19034 -10.19030 -10.19027 -10.19010 -10.19006
 Alpha  occ. eigenvalues --  -10.19005 -10.18965 -10.18961 -10.18958  -6.54844
 Alpha  occ. eigenvalues --   -4.71103  -4.71102  -4.70601  -0.85560  -0.84847
 Alpha  occ. eigenvalues --   -0.84843  -0.76669  -0.74367  -0.74365  -0.74329
 Alpha  occ. eigenvalues --   -0.73822  -0.73820  -0.64436  -0.60336  -0.60308
 Alpha  occ. eigenvalues --   -0.60305  -0.59207  -0.59206  -0.55448  -0.51436
 Alpha  occ. eigenvalues --   -0.51434  -0.49295  -0.45441  -0.45438  -0.44774
 Alpha  occ. eigenvalues --   -0.44344  -0.44344  -0.44067  -0.41946  -0.41869
 Alpha  occ. eigenvalues --   -0.41867  -0.40380  -0.40375  -0.36844  -0.36354
 Alpha  occ. eigenvalues --   -0.36348  -0.35899  -0.34253  -0.34250  -0.34224
 Alpha  occ. eigenvalues --   -0.31885  -0.31882  -0.26777  -0.25452  -0.25442
 Alpha  occ. eigenvalues --   -0.25243  -0.24704  -0.24703  -0.21145
 Alpha virt. eigenvalues --   -0.01884  -0.01874  -0.00830   0.00173   0.00424
 Alpha virt. eigenvalues --    0.00434   0.06873   0.06894   0.09493   0.11037
 Alpha virt. eigenvalues --    0.11040   0.13903   0.14528   0.14530   0.15165

 Mulliken charges:
               1
     1  C   -0.128856
     2  C   -0.116722
     3  C   -0.165645
     4  C   -0.095165
     5  C   -0.148886
     6  C   -0.122592
     7  P    0.450661
     8  C   -0.091560
     9  C   -0.162743
    10  C   -0.115740
    11  C   -0.137372
    12  C   -0.124095
    13  C   -0.153004
    14  C   -0.134476
    15  C   -0.173537
    16  C   -0.122283
    17  C   -0.169944
    18  C   -0.119702
    19  C   -0.174049
    20  H    0.140789
    21  H    0.138246
    22  H    0.141327
    23  H    0.176747
    24  H    0.143266
    25  H    0.147799
    26  H    0.136695
    27  H    0.133783
    28  H    0.134328
    29  H    0.141076
    30  H    0.111688
    31  H    0.111958
    32  H    0.105977
    33  H    0.115722
    34  H    0.126309
 Sum of Mulliken charges =  -0.00000

 Dipole moment (field-independent basis, Debye):
    X=             -3.7974    Y=             -0.0224    Z=             -0.1975  Tot=              3.8026
 Quadrupole moment (field-independent basis, Debye-Ang):
   XX=           -119.3746   YY=           -107.6856   ZZ=           -110.6682
   XY=              3.9747   XZ=             -1.1095   YZ=             -0.8222

 Summary of Natural Population Analysis:

                                       Natural Population
                Natural  -----------------------------------------------
    Atom  No    Charge         Core      Valence    Rydberg      Total
 -----------------------------------------------------------------------
      C    1   -0.21298      1.99909     4.19961    0.01427     6.21298
      C    2   -0.23168      1.99910     4.21839    0.01419     6.23168
      C    3   -0.21711      1.99902     4.20258    0.01551     6.21711
      C    4   -0.40319      1.99890     4.37847    0.02582     6.40319
      C    5   -0.20423      1.99900     4.18889    0.01634     6.20423
      C    6   -0.23499      1.99909     4.22162    0.01428     6.23499
      P    7    1.24219      9.99750     3.71007    0.05024    13.75781
      C    8   -0.40339      1.99888     4.38046    0.02405     6.40339
      C    9   -0.23847      1.99899     4.22252    0.01697     6.23847
      C   10   -0.22321      1.99909     4.21004    0.01408     6.22321
      C   11   -0.23137      1.99909     4.21749    0.01478     6.23137
      C   12   -0.24510      1.99910     4.23124    0.01476     6.24510
      C   13   -0.20029      1.99901     4.18596    0.01532     6.20029
      C   14   -0.49004      1.99886     4.46554    0.02564     6.49004
      C   15   -0.23683      1.99901     4.22142    0.01639     6.23683
      C   16   -0.24388      1.99910     4.22978    0.01501     6.24388
      C   17   -0.30022      1.99910     4.28435    0.01677     6.30022
      C   18   -0.23180      1.99909     4.21806    0.01465     6.23180
      C   19   -0.26027      1.99899     4.24321    0.01808     6.26027
      H   20    0.23972      0.00000     0.75942    0.00086     0.76028
      H   21    0.24072      0.00000     0.75835    0.00093     0.75928
      H   22    0.23755      0.00000     0.76133    0.00111     0.76245
      H   23    0.26167      0.00000     0.73700    0.00133     0.73833
      H   24    0.24405      0.00000     0.75507    0.00087     0.75595
      H   25    0.24595      0.00000     0.75278    0.00127     0.75405
      H   26    0.24086      0.00000     0.75826    0.00087     0.75914
      H   27    0.23681      0.00000     0.76232    0.00086     0.76319
      H   28    0.23960      0.00000     0.75954    0.00087     0.76040
      H   29    0.23890      0.00000     0.75986    0.00124     0.76110
      H   30    0.22271      0.00000     0.77632    0.00097     0.77729
      H   31    0.22875      0.00000     0.77033    0.00092     0.77125
      H   32    0.22472      0.00000     0.77439    0.00090     0.77528
      H   33    0.23125      0.00000     0.76787    0.00088     0.76875
      H   34    0.23358      0.00000     0.76488    0.00153     0.76642
 =======================================================================
   * Total *   -0.00000     45.98001    91.64742    0.37257   138.00000

 Normal termination of Gaussian 16 at Sun Aug 23 04:36:03 2020.
