 Gaussian 16, Revision A.03,

 ---------------------------------
 # opt=CalcAll B3LYP/6-31G* scf=qc
 ---------------------------------

 -------------------
 Title Card Required
 -------------------
 Symbolic Z-matrix:
 Charge =  0 Multiplicity = 1

 SCF Done:  E(RB3LYP) =  -1333.92735711     a.u. after    8 cycles
 SCF Done:  E(RB3LYP) =  -1333.95822949     a.u. after   17 cycles
 SCF Done:  E(RB3LYP) =  -1333.96965210     a.u. after   15 cycles
 SCF Done:  E(RB3LYP) =  -1333.98761396     a.u. after   19 cycles
 SCF Done:  E(RB3LYP) =  -1333.99507364     a.u. after   17 cycles
 SCF Done:  E(RB3LYP) =  -1333.99742390     a.u. after   17 cycles
 SCF Done:  E(RB3LYP) =  -1333.99843157     a.u. after   17 cycles
 SCF Done:  E(RB3LYP) =  -1333.99885755     a.u. after   17 cycles
 SCF Done:  E(RB3LYP) =  -1333.99891549     a.u. after   15 cycles
 SCF Done:  E(RB3LYP) =  -1333.99895006     a.u. after    5 cycles
 SCF Done:  E(RB3LYP) =  -1333.99896913     a.u. after    5 cycles
 SCF Done:  E(RB3LYP) =  -1333.99897635     a.u. after    7 cycles
 SCF Done:  E(RB3LYP) =  -1333.99897711     a.u. after    4 cycles
 SCF Done:  E(RB3LYP) =  -1333.99898278     a.u. after    2 cycles
 SCF Done:  E(RB3LYP) =  -1333.99897721     a.u. after    2 cycles
 SCF Done:  E(RB3LYP) =  -1333.99898286     a.u. after    2 cycles
 Optimization completed.
    -- Stationary point found.
 Normal termination of Gaussian 16 at Sun Aug 23 15:26:08 2020.

 ----------------------------------------------------------------------
 # freq B3LYP/6-31G* scf=qc volume NMR pop=NPA density=current Geom=All
 Check Guess=Read
 ----------------------------------------------------------------------

 Structure from the checkpoint file:  "phosphine_5_conf222.chk"
 -------------------
 Title Card Required
 -------------------
 Charge =  0 Multiplicity = 1

 SCF Done:  E(RB3LYP) =  -1333.99898286     a.u. after    1 cycles

      1  C    Isotropic =    80.0571   Anisotropy =   136.7219

      2  C    Isotropic =    60.7082   Anisotropy =   171.8772

      3  C    Isotropic =    61.6224   Anisotropy =   173.4945

      4  C    Isotropic =    59.0244   Anisotropy =   162.7895

      5  C    Isotropic =    79.9348   Anisotropy =   137.4409

      6  C    Isotropic =    32.6684   Anisotropy =    98.8107

      7  F    Isotropic =   295.8003   Anisotropy =   113.0340

      8  P    Isotropic =   366.2589   Anisotropy =    40.2120

      9  C    Isotropic =    61.6188   Anisotropy =   173.5010

     10  C    Isotropic =    59.0485   Anisotropy =   162.8035

     11  C    Isotropic =    79.9390   Anisotropy =   137.4598

     12  C    Isotropic =    32.6614   Anisotropy =    98.8186

     13  C    Isotropic =    80.0638   Anisotropy =   136.7292

     14  C    Isotropic =    60.7203   Anisotropy =   171.8624

     15  F    Isotropic =   295.7951   Anisotropy =   112.9990

     16  C    Isotropic =    61.6183   Anisotropy =   173.4815

     17  C    Isotropic =    59.0392   Anisotropy =   162.7894

     18  C    Isotropic =    79.9294   Anisotropy =   137.4423

     19  C    Isotropic =    32.6576   Anisotropy =    98.8263

     20  C    Isotropic =    80.0647   Anisotropy =   136.7197

     21  C    Isotropic =    60.7058   Anisotropy =   171.8671

     22  F    Isotropic =   295.7886   Anisotropy =   113.0243

     23  H    Isotropic =    25.4655   Anisotropy =     5.7368

     24  H    Isotropic =    25.3633   Anisotropy =    12.0166

     25  H    Isotropic =    24.6181   Anisotropy =     8.9214

     26  H    Isotropic =    25.3591   Anisotropy =     4.2569

     27  H    Isotropic =    24.6188   Anisotropy =     8.9241

     28  H    Isotropic =    25.3588   Anisotropy =     4.2584

     29  H    Isotropic =    25.4660   Anisotropy =     5.7374

     30  H    Isotropic =    25.3648   Anisotropy =    12.0213

     31  H    Isotropic =    24.6195   Anisotropy =     8.9197

     32  H    Isotropic =    25.3571   Anisotropy =     4.2612

     33  H    Isotropic =    25.4671   Anisotropy =     5.7358

     34  H    Isotropic =    25.3655   Anisotropy =    12.0182

  Exact polarizability: 226.226   0.021 226.159   0.016  -0.020 167.692
 Approx polarizability: 337.894   0.046 337.786   0.038  -0.042 314.795

                      1                      2                      3
                      A                      A                      A
 Frequencies --     25.3767                25.7367                37.6492
 Red. masses --      4.1429                 4.1406                 8.7222
 Frc consts  --      0.0016                 0.0016                 0.0073
 IR Inten    --      0.2451                 0.2472                 0.1019

                      4                      5                      6
                      A                      A                      A
 Frequencies --     37.8131                40.2420                50.7906
 Red. masses --      8.6729                 3.7396                 9.9462
 Frc consts  --      0.0073                 0.0036                 0.0151
 IR Inten    --      0.1045                 0.0058                 0.1140

                      7                      8                      9
                      A                      A                      A
 Frequencies --    132.9753               145.5183               145.6461
 Red. masses --      8.0518                 8.3669                 8.3723
 Frc consts  --      0.0839                 0.1044                 0.1046
 IR Inten    --      0.0227                 0.5190                 0.5158

                     10                     11                     12
                      A                      A                      A
 Frequencies --    208.9722               218.8354               219.3366
 Red. masses --      8.0472                 6.9839                 6.9943
 Frc consts  --      0.2070                 0.1971                 0.1983
 IR Inten    --      0.2910                 0.5245                 0.5258

                     13                     14                     15
                      A                      A                      A
 Frequencies --    307.9852               336.1058               336.1657
 Red. masses --      8.4351                 8.3091                 8.3102
 Frc consts  --      0.4714                 0.5530                 0.5533
 IR Inten    --      1.0296                 0.0450                 0.0440

                     16                     17                     18
                      A                      A                      A
 Frequencies --    397.1759               404.1615               404.2180
 Red. masses --      7.7429                 8.0221                 8.0062
 Frc consts  --      0.7196                 0.7721                 0.7707
 IR Inten    --      0.3035                10.0357                10.0226

                     19                     20                     21
                      A                      A                      A
 Frequencies --    420.7842               420.8252               424.6918
 Red. masses --      3.2813                 3.2823                 3.1322
 Frc consts  --      0.3423                 0.3425                 0.3329
 IR Inten    --      1.1604                 1.1418                 0.0214

                     22                     23                     24
                      A                      A                      A
 Frequencies --    435.0810               435.2271               463.3927
 Red. masses --      6.1502                 6.1553                 6.6336
 Frc consts  --      0.6859                 0.6870                 0.8393
 IR Inten    --     19.0428                19.0637                 7.3617

                     25                     26                     27
                      A                      A                      A
 Frequencies --    533.2098               533.2523               535.6126
 Red. masses --      2.8115                 2.8117                 2.9074
 Frc consts  --      0.4710                 0.4711                 0.4914
 IR Inten    --     21.8419                21.8004                13.4958

                     28                     29                     30
                      A                      A                      A
 Frequencies --    608.0397               630.0231               630.0823
 Red. masses --      7.9087                 7.8299                 7.8277
 Frc consts  --      1.7227                 1.8311                 1.8310
 IR Inten    --      0.0086                 0.0389                 0.0382

                     31                     32                     33
                      A                      A                      A
 Frequencies --    648.2450               648.4240               648.4440
 Red. masses --      7.2779                 7.3795                 7.3793
 Frc consts  --      1.8019                 1.8281                 1.8281
 IR Inten    --      0.0061                 0.1273                 0.1276

                     34                     35                     36
                      A                      A                      A
 Frequencies --    715.2027               715.7591               715.8127
 Red. masses --      4.8112                 4.8313                 4.8332
 Frc consts  --      1.4500                 1.4583                 1.4591
 IR Inten    --      1.0190                 3.9641                 3.9815

                     37                     38                     39
                      A                      A                      A
 Frequencies --    835.8287               835.8673               836.9034
 Red. masses --      1.2651                 1.2621                 1.3278
 Frc consts  --      0.5207                 0.5195                 0.5480
 IR Inten    --      0.7071                 0.4543                11.1228

                     40                     41                     42
                      A                      A                      A
 Frequencies --    839.5483               839.5926               839.7792
 Red. masses --      3.2712                 3.2403                 3.9867
 Frc consts  --      1.3585                 1.3458                 1.6565
 IR Inten    --     61.3369                61.9583                18.3783

                     43                     44                     45
                      A                      A                      A
 Frequencies --    843.6956               843.7492               843.9331
 Red. masses --      1.9833                 1.9318                 1.7291
 Frc consts  --      0.8318                 0.8103                 0.7256
 IR Inten    --     10.3036                10.4057                11.9459

                     46                     47                     48
                      A                      A                      A
 Frequencies --    958.7147               958.7564               959.8252
 Red. masses --      1.2558                 1.2557                 1.2578
 Frc consts  --      0.6800                 0.6801                 0.6828
 IR Inten    --      0.1640                 0.1577                 0.3512

                     49                     50                     51
                      A                      A                      A
 Frequencies --    969.9803               970.0311               973.1371
 Red. masses --      1.3353                 1.3352                 1.3211
 Frc consts  --      0.7402                 0.7402                 0.7371
 IR Inten    --      0.0314                 0.0285                 0.3072

                     52                     53                     54
                      A                      A                      A
 Frequencies --   1034.7044              1034.8145              1035.2017
 Red. masses --      3.0247                 3.0320                 3.0228
 Frc consts  --      1.9080                 1.9129                 1.9086
 IR Inten    --      7.9804                 7.9135                 0.1308

                     55                     56                     57
                      A                      A                      A
 Frequencies --   1102.8407              1103.0778              1108.5551
 Red. masses --      3.6680                 3.6650                 3.5537
 Frc consts  --      2.6285                 2.6274                 2.5731
 IR Inten    --     19.2588                19.2134                 2.0004

                     58                     59                     60
                      A                      A                      A
 Frequencies --   1127.5349              1127.7325              1127.9007
 Red. masses --      1.3306                 1.3304                 1.3298
 Frc consts  --      0.9967                 0.9969                 0.9967
 IR Inten    --      1.0787                 2.5504                 5.3366

                     61                     62                     63
                      A                      A                      A
 Frequencies --   1195.1389              1195.5955              1199.3654
 Red. masses --      1.1830                 1.1851                 1.1796
 Frc consts  --      0.9956                 0.9981                 0.9997
 IR Inten    --     60.3298                61.0456                 2.6774

                     64                     65                     66
                      A                      A                      A
 Frequencies --   1285.3013              1285.4635              1286.1632
 Red. masses --      3.7580                 3.7457                 3.7885
 Frc consts  --      3.6577                 3.6467                 3.6924
 IR Inten    --    166.7443               166.5019                39.4108

                     67                     68                     69
                      A                      A                      A
 Frequencies --   1324.1696              1327.3520              1327.8012
 Red. masses --      2.7019                 2.2071                 2.3186
 Frc consts  --      2.7913                 2.2912                 2.4085
 IR Inten    --      8.9280                 3.8953                 3.9069

                     70                     71                     72
                      A                      A                      A
 Frequencies --   1336.7058              1336.8792              1337.1166
 Red. masses --      2.3537                 2.2067                 1.9737
 Frc consts  --      2.4779                 2.3237                 2.0791
 IR Inten    --      0.3730                 0.4044                 0.7970

                     73                     74                     75
                      A                      A                      A
 Frequencies --   1437.9371              1438.1197              1438.2827
 Red. masses --      2.9884                 2.9926                 2.9873
 Frc consts  --      3.6406                 3.6466                 3.6410
 IR Inten    --      6.6919                 2.9407                 2.5196

                     76                     77                     78
                      A                      A                      A
 Frequencies --   1545.5437              1545.7518              1546.5179
 Red. masses --      2.4090                 2.4052                 2.4452
 Frc consts  --      3.3904                 3.3859                 3.4457
 IR Inten    --    116.3917               116.3113                24.5508

                     79                     80                     81
                      A                      A                      A
 Frequencies --   1633.9764              1634.0195              1634.0208
 Red. masses --      6.9717                 6.9624                 6.9664
 Frc consts  --     10.9668                10.9527                10.9591
 IR Inten    --      9.8084                11.7425                13.1932

                     82                     83                     84
                      A                      A                      A
 Frequencies --   1653.5306              1653.5744              1654.4060
 Red. masses --      5.8094                 5.8050                 5.8779
 Frc consts  --      9.3585                 9.3519                 9.4789
 IR Inten    --     82.8431                82.6193                22.4882

                     85                     86                     87
                      A                      A                      A
 Frequencies --   3188.8397              3188.9300              3188.9616
 Red. masses --      1.0892                 1.0892                 1.0892
 Frc consts  --      6.5258                 6.5260                 6.5259
 IR Inten    --      5.7044                 4.9443                 2.7551

                     88                     89                     90
                      A                      A                      A
 Frequencies --   3205.6950              3205.9462              3206.5854
 Red. masses --      1.0878                 1.0878                 1.0878
 Frc consts  --      6.5864                 6.5872                 6.5902
 IR Inten    --      1.9500                 1.9559                 0.4949

                     91                     92                     93
                      A                      A                      A
 Frequencies --   3221.9051              3221.9624              3222.1923
 Red. masses --      1.0942                 1.0942                 1.0941
 Frc consts  --      6.6923                 6.6925                 6.6926
 IR Inten    --      3.2840                 3.6251                11.5280

                     94                     95                     96
                      A                      A                      A
 Frequencies --   3222.6677              3222.7305              3222.9377
 Red. masses --      1.0937                 1.0936                 1.0939
 Frc consts  --      6.6921                 6.6922                 6.6946
 IR Inten    --     12.1108                11.9054                 0.3479

 - Thermochemistry -
 -------------------
 Temperature   298.150 Kelvin.  Pressure   1.00000 Atm.
 Atom     1 has atomic number  6 and mass  12.00000

 Molecular mass:   316.06287 amu.
 Principal axes and moments of inertia in atomic units:
                           1         2         3
     Eigenvalues --  8317.037228320.31945**********
           X            0.99989   0.01488   0.00000
           Y           -0.01488   0.99989  -0.00001
           Z           -0.00000   0.00001   1.00000
 This molecule is an asymmetric top.
 Rotational symmetry number  1.
 Warning -- assumption of classical behavior for rotation
           may cause significant error
 Rotational temperatures (Kelvin)      0.01041     0.01041     0.00596
 Rotational constants (GHZ):           0.21699     0.21691     0.12428
 Zero-point vibrational energy     655317.9 (Joules/Mol)
                                  156.62475 (Kcal/Mol)
 Warning -- explicit consideration of  28 degrees of freedom as
           vibrations may cause significant error
 Vibrational temperatures:     36.51    37.03    54.17    54.40    57.90
          (Kelvin)             73.08   191.32   209.37   209.55   300.66
                              314.86   315.58   443.12   483.58   483.67
                              571.45   581.50   581.58   605.41   605.47
                              611.04   625.98   626.19   666.72   767.17
                              767.23   770.63   874.83   906.46   906.55
                              932.68   932.94   932.97  1029.02  1029.82
                             1029.89  1202.57  1202.63  1204.12  1207.92
                             1207.99  1208.25  1213.89  1213.97  1214.23
                             1379.38  1379.44  1380.97  1395.59  1395.66
                             1400.13  1488.71  1488.87  1489.42  1586.74
                             1587.08  1594.96  1622.27  1622.56  1622.80
                             1719.54  1720.20  1725.62  1849.26  1849.50
                             1850.50  1905.18  1909.76  1910.41  1923.22
                             1923.47  1923.81  2068.87  2069.13  2069.37
                             2223.69  2223.99  2225.09  2350.93  2350.99
                             2350.99  2379.06  2379.12  2380.32  4588.03
                             4588.16  4588.20  4612.28  4612.64  4613.56
                             4635.60  4635.69  4636.02  4636.70  4636.79
                             4637.09

 Zero-point correction=                           0.249597 (Hartree/Particle)
 Thermal correction to Energy=                    0.268019
 Thermal correction to Enthalpy=                  0.268964
 Thermal correction to Gibbs Free Energy=         0.199645
 Sum of electronic and zero-point Energies=          -1333.749385
 Sum of electronic and thermal Energies=             -1333.730964
 Sum of electronic and thermal Enthalpies=           -1333.730019
 Sum of electronic and thermal Free Energies=        -1333.799338

                     E (Thermal)             CV                S
                      KCal/Mol        Cal/Mol-Kelvin    Cal/Mol-Kelvin
 Total                  168.185             71.392            145.894
 Electronic               0.000              0.000              0.000
 Translational            0.889              2.981             43.148
 Rotational               0.889              2.981             35.262
 Vibrational            166.407             65.430             67.484
 Vibration     1          0.593              1.985              6.162
 Vibration     2          0.593              1.985              6.134
 Vibration     3          0.594              1.982              5.379
 Vibration     4          0.594              1.982              5.370
 Vibration     5          0.594              1.981              5.247
 Vibration     6          0.595              1.977              4.786
 Vibration     7          0.613              1.920              2.903
 Vibration     8          0.617              1.908              2.730
 Vibration     9          0.617              1.907              2.728
 Vibration    10          0.642              1.827              2.053
 Vibration    11          0.647              1.812              1.969
 Vibration    12          0.647              1.812              1.965
 Vibration    13          0.698              1.659              1.373
 Vibration    14          0.717              1.603              1.231
 Vibration    15          0.717              1.603              1.230
 Vibration    16          0.764              1.476              0.973
 Vibration    17          0.769              1.461              0.947
 Vibration    18          0.769              1.461              0.947
 Vibration    19          0.783              1.425              0.889
 Vibration    20          0.783              1.425              0.889
 Vibration    21          0.787              1.417              0.876
 Vibration    22          0.796              1.394              0.842
 Vibration    23          0.796              1.393              0.842
 Vibration    24          0.821              1.331              0.756
 Vibration    25          0.888              1.177              0.580
 Vibration    26          0.888              1.176              0.580
 Vibration    27          0.891              1.171              0.575
 Vibration    28          0.967              1.015              0.436

                           ! Non-Optimized Parameters !
 Normal termination of Gaussian 16 at Sun Aug 23 15:40:33 2020.
 Gaussian 16:  ES64L-G16RevA.03 25-Dec-2016

 ----------------------------------------------------------------------
 # TD(NStates=10, Root=1) B3LYP/6-31G* scf=qc volume pop=NPA density=cu
 rrent Geom=AllCheck Guess=Read
 ----------------------------------------------------------------------

 Structure from the checkpoint file:  "phosphine_5_conf223.chk"
 -------------------
 Title Card Required
 -------------------
 Charge =  0 Multiplicity = 1

                         Standard orientation:
 ---------------------------------------------------------------------
 Center     Atomic      Atomic             Coordinates (Angstroms)
 Number     Number       Type             X           Y           Z
 ---------------------------------------------------------------------
      1          6           0        3.343755    0.223160   -1.129890
      2          6           0        2.105529   -0.148313   -0.604100
      3          6           0        1.611117    0.439208    0.571253
      4          6           0        2.400649    1.407358    1.216126
      5          6           0        3.634186    1.798816    0.698927
      6          6           0        4.085781    1.195156   -0.469470
      7          9           0        5.283199    1.558565   -0.972570
      8         15           0        0.000213    0.000252    1.374364
      9          6           0       -1.185643    1.175739    0.571566
     10          6           0       -2.419583    1.373701    1.215580
     11          6           0       -3.375785    2.245707    0.698273
     12          6           0       -3.078501    2.939915   -0.469292
     13          6           0       -1.864965    2.785118   -1.128745
     14          6           0       -0.923724    1.898974   -0.602924
     15          9           0       -3.992401    3.794650   -0.972500
     16          6           0       -0.425278   -1.614393    0.571611
     17          6           0        0.019012   -2.782207    1.216082
     18          6           0       -0.258513   -4.046183    0.698693
     19          6           0       -1.007455   -4.135440   -0.469481
     20          6           0       -1.478887   -3.006846   -1.129450
     21          6           0       -1.181720   -1.748799   -0.603475
     22          9           0       -1.291131   -5.354125   -0.972800
     23          1           0        3.736297   -0.227845   -2.035684
     24          1           0        1.523829   -0.909265   -1.115129
     25          1           0        2.047943    1.859343    2.139955
     26          1           0        4.248253    2.547033    1.189484
     27          1           0       -2.634974    0.841202    2.138731
     28          1           0       -4.331390    2.401990    1.188105
     29          1           0       -1.670423    3.351544   -2.033878
     30          1           0        0.026663    1.777041   -1.113304
     31          1           0        0.587188   -2.702761    2.139670
     32          1           0        0.082941   -4.952090    1.188887
     33          1           0       -2.066048   -3.121296   -2.035044
     34          1           0       -1.550340   -0.864524   -1.114122
 ---------------------------------------------------------------------

 SCF Done:  E(RB3LYP) =  -1333.99898286     a.u. after    1 cycles

 Excitation energies and oscillator strengths:

 Excited State   1:      Singlet-A      4.5737 eV  271.08 nm  f=0.1357  <S**2>=0.000
      81 -> 82         0.69443
 This state for optimization and/or second-order correction.
 Total Energy, E(TD-HF/TD-DFT) =  -1333.83090347
 Copying the excited state density for this state as the 1-particle RhoCI density.

 Excited State   2:      Singlet-A      4.5744 eV  271.04 nm  f=0.1359  <S**2>=0.000
      81 -> 83         0.69439

 Excited State   3:      Singlet-A      4.5856 eV  270.38 nm  f=0.0088  <S**2>=0.000
      81 -> 84         0.68933

 Excited State   4:      Singlet-A      4.9051 eV  252.77 nm  f=0.0017  <S**2>=0.000
      81 -> 85         0.67540

 Excited State   5:      Singlet-A      4.9055 eV  252.75 nm  f=0.0017  <S**2>=0.000
      81 -> 86         0.67532

 Excited State   6:      Singlet-A      5.2390 eV  236.66 nm  f=0.0075  <S**2>=0.000
      79 -> 82         0.11287
      80 -> 83         0.11297
      81 -> 87         0.67234

 Excited State   7:      Singlet-A      5.4171 eV  228.87 nm  f=0.0000  <S**2>=0.000
      75 -> 84         0.14235
      77 -> 82        -0.17442
      78 -> 83         0.17043
      79 -> 82        -0.24675
      79 -> 83         0.32392
      79 -> 85         0.14137
      80 -> 82        -0.32365
      80 -> 83        -0.24581
      80 -> 86        -0.13869

 Excited State   8:      Singlet-A      5.4453 eV  227.69 nm  f=0.0020  <S**2>=0.000
      76 -> 82        -0.20584
      77 -> 82         0.17493
      77 -> 87         0.12560
      78 -> 83         0.17817
      79 -> 84        -0.31112
      79 -> 86        -0.14052
      80 -> 84         0.39332
      80 -> 85         0.13971
      81 -> 85        -0.13111

 Excited State   9:      Singlet-A      5.4455 eV  227.68 nm  f=0.0021  <S**2>=0.000
      76 -> 83         0.20548
      77 -> 83         0.17591
      78 -> 82        -0.17624
      78 -> 87         0.12556
      79 -> 84         0.39265
      79 -> 85        -0.13902
      80 -> 84         0.31246
      80 -> 86        -0.14060
      81 -> 86        -0.13133

 Excited State  10:      Singlet-A      5.6625 eV  218.96 nm  f=0.0006  <S**2>=0.000
      75 -> 84         0.16559
      76 -> 84         0.10275
      77 -> 82        -0.24681
      78 -> 83         0.24412
      79 -> 83        -0.28079
      79 -> 85         0.21717
      79 -> 86        -0.13295
      80 -> 82         0.31053
      80 -> 85        -0.13378
      80 -> 86        -0.22065

 The electronic state is 1-A.
 Alpha  occ. eigenvalues --  -77.09285 -24.70933 -24.70933 -24.70932 -10.27929
 Alpha  occ. eigenvalues --  -10.27929 -10.27928 -10.20801 -10.20801 -10.20801
 Alpha  occ. eigenvalues --  -10.20701 -10.20700 -10.20700 -10.20479 -10.20478
 Alpha  occ. eigenvalues --  -10.20478 -10.20317 -10.20316 -10.20316 -10.20309
 Alpha  occ. eigenvalues --  -10.20309 -10.20308  -6.55986  -4.72248  -4.72248
 Alpha  occ. eigenvalues --   -4.71743  -1.22111  -1.22111  -1.22110  -0.87207
 Alpha  occ. eigenvalues --   -0.86555  -0.86555  -0.77802  -0.76322  -0.76285
 Alpha  occ. eigenvalues --   -0.76285  -0.74867  -0.74867  -0.65458  -0.63137
 Alpha  occ. eigenvalues --   -0.62959  -0.62959  -0.60998  -0.60997  -0.57074
 Alpha  occ. eigenvalues --   -0.54665  -0.54665  -0.54254  -0.49446  -0.49446
 Alpha  occ. eigenvalues --   -0.49381  -0.48019  -0.48018  -0.46310  -0.46309
 Alpha  occ. eigenvalues --   -0.46296  -0.45864  -0.44921  -0.44921  -0.43857
 Alpha  occ. eigenvalues --   -0.43706  -0.43705  -0.42082  -0.40157  -0.40108
 Alpha  occ. eigenvalues --   -0.40108  -0.37160  -0.37159  -0.36439  -0.34997
 Alpha  occ. eigenvalues --   -0.34997  -0.34951  -0.33923  -0.33923  -0.27233
 Alpha  occ. eigenvalues --   -0.26849  -0.26599  -0.26598  -0.25424  -0.25423
 Alpha  occ. eigenvalues --   -0.21916
 Alpha virt. eigenvalues --   -0.02511  -0.02509  -0.02414  -0.01173  -0.01171
 Alpha virt. eigenvalues --   -0.00311   0.05884   0.05887   0.08467   0.10088
 Alpha virt. eigenvalues --    0.10088   0.12848   0.13530   0.13530   0.14053

 Mulliken charges:
               1
     1  C   -0.185770
     2  C   -0.172840
     3  C   -0.127372
     4  C   -0.176787
     5  C   -0.186294
     6  C    0.342947
     7  F   -0.303170
     8  P    0.435453
     9  C   -0.083321
    10  C   -0.166622
    11  C   -0.182577
    12  C    0.388855
    13  C   -0.187710
    14  C   -0.150426
    15  F   -0.283094
    16  C   -0.098810
    17  C   -0.154721
    18  C   -0.196792
    19  C    0.361829
    20  C   -0.178852
    21  C   -0.180790
    22  F   -0.295684
    23  H    0.140384
    24  H    0.143947
    25  H    0.127140
    26  H    0.136620
    27  H    0.155156
    28  H    0.159855
    29  H    0.163378
    30  H    0.180927
    31  H    0.143319
    32  H    0.145201
    33  H    0.147372
    34  H    0.139249
 Sum of Mulliken charges =   0.00000

 Dipole moment (field-independent basis, Debye):
    X=             -2.8890    Y=              1.3530    Z=              1.4554  Tot=              3.5064
 Quadrupole moment (field-independent basis, Debye-Ang):
   XX=           -141.4793   YY=           -137.5524   ZZ=           -121.8315
   XY=             -5.8927   XZ=              0.1556   YZ=             -0.8255

 Summary of Natural Population Analysis:

                                       Natural Population
                Natural  -----------------------------------------------
    Atom  No    Charge         Core      Valence    Rydberg      Total
 -----------------------------------------------------------------------
      C    1   -0.29713      1.99899     4.28301    0.01512     6.29713
      C    2   -0.23900      1.99900     4.22224    0.01776     6.23900
      C    3   -0.48735      1.99888     4.46193    0.02655     6.48735
      C    4   -0.22387      1.99903     4.20860    0.01624     6.22387
      C    5   -0.30514      1.99900     4.29080    0.01535     6.30514
      C    6    0.37607      1.99844     3.59747    0.02802     5.62393
      F    7   -0.33808      1.99994     7.33264    0.00550     9.33808
      P    8    1.21008      9.99756     3.74079    0.05156    13.78992
      C    9   -0.39681      1.99891     4.37236    0.02554     6.39681
      C   10   -0.20357      1.99903     4.18893    0.01561     6.20357
      C   11   -0.29994      1.99899     4.28605    0.01490     6.29994
      C   12    0.45182      1.99844     3.52258    0.02716     5.54818
      C   13   -0.30348      1.99898     4.28957    0.01494     6.30348
      C   14   -0.19119      1.99901     4.17612    0.01606     6.19119
      F   15   -0.32028      1.99994     7.31475    0.00559     9.32028
      C   16   -0.43407      1.99888     4.41084    0.02435     6.43407
      C   17   -0.18539      1.99903     4.17104    0.01532     6.18539
      C   18   -0.32577      1.99899     4.31075    0.01602     6.32577
      C   19    0.40840      1.99844     3.56551    0.02766     5.59160
      C   20   -0.28579      1.99899     4.27206    0.01474     6.28579
      C   21   -0.25970      1.99900     4.24257    0.01812     6.25970
      F   22   -0.33132      1.99994     7.32586    0.00552     9.33132
      H   23    0.24870      0.00000     0.75009    0.00120     0.75130
      H   24    0.24339      0.00000     0.75495    0.00166     0.75661
      H   25    0.23086      0.00000     0.76825    0.00089     0.76914
      H   26    0.24635      0.00000     0.75242    0.00123     0.75365
      H   27    0.24588      0.00000     0.75298    0.00114     0.75412
      H   28    0.25742      0.00000     0.74139    0.00120     0.74258
      H   29    0.25974      0.00000     0.73908    0.00117     0.74026
      H   30    0.26431      0.00000     0.73445    0.00124     0.73569
      H   31    0.24053      0.00000     0.75829    0.00118     0.75947
      H   32    0.25115      0.00000     0.74768    0.00117     0.74885
      H   33    0.25178      0.00000     0.74702    0.00121     0.74822
      H   34    0.24140      0.00000     0.75726    0.00134     0.75860
 =======================================================================
   * Total *   -0.00000     51.97740   109.59033    0.43227   162.00000

 Normal termination of Gaussian 16 at Sun Aug 23 15:55:02 2020.
