 Gaussian 16, Revision A.03,

 ---------------------------------
 # opt=CalcAll B3LYP/6-31G* scf=qc
 ---------------------------------

 -------------------
 Title Card Required
 -------------------
 Symbolic Z-matrix:
 Charge =  0 Multiplicity = 1

 SCF Done:  E(RB3LYP) =  -1029.60306197     a.u. after    9 cycles
 SCF Done:  E(RB3LYP) =  -1029.62046856     a.u. after   17 cycles
 SCF Done:  E(RB3LYP) =  -1029.62385853     a.u. after   15 cycles
 SCF Done:  E(RB3LYP) =  -1029.62479941     a.u. after   17 cycles
 SCF Done:  E(RB3LYP) =  -1029.62485641     a.u. after   13 cycles
 SCF Done:  E(RB3LYP) =  -1029.62486989     a.u. after    7 cycles
 SCF Done:  E(RB3LYP) =  -1029.62487581     a.u. after    5 cycles
 SCF Done:  E(RB3LYP) =  -1029.62487737     a.u. after    2 cycles
 SCF Done:  E(RB3LYP) =  -1029.62487445     a.u. after    2 cycles
 SCF Done:  E(RB3LYP) =  -1029.62487357     a.u. after    2 cycles
 SCF Done:  E(RB3LYP) =  -1029.62487576     a.u. after    2 cycles
 SCF Done:  E(RB3LYP) =  -1029.62487255     a.u. after    2 cycles
 SCF Done:  E(RB3LYP) =  -1029.62487231     a.u. after    2 cycles
 SCF Done:  E(RB3LYP) =  -1029.62487502     a.u. after    3 cycles
 SCF Done:  E(RB3LYP) =  -1029.62487556     a.u. after    2 cycles
 Optimization completed.
    -- Stationary point found.
 Normal termination of Gaussian 16 at Sun Aug 23 15:29:59 2020.

 ----------------------------------------------------------------------
 # freq B3LYP/6-31G* scf=qc volume NMR pop=NPA density=current Geom=All
 Check Guess=Read
 ----------------------------------------------------------------------

 Structure from the checkpoint file:  "phosphine_9_conf72.chk"
 -------------------
 Title Card Required
 -------------------
 Charge =  0 Multiplicity = 1

 SCF Done:  E(RB3LYP) =  -1029.62487556     a.u. after    1 cycles

      1  C    Isotropic =    84.7118   Anisotropy =   121.0578

      2  C    Isotropic =    75.8416   Anisotropy =   132.6989

      3  C    Isotropic =    43.4057   Anisotropy =    89.2182

      4  O    Isotropic =    39.8044   Anisotropy =   300.8718

      5  C    Isotropic =    50.6723   Anisotropy =    98.8594

      6  P    Isotropic =   433.0128   Anisotropy =    38.1020

      7  C    Isotropic =    43.3902   Anisotropy =    89.2320

      8  C    Isotropic =    75.8470   Anisotropy =   132.6535

      9  C    Isotropic =    84.7247   Anisotropy =   121.0910

     10  C    Isotropic =    50.6597   Anisotropy =    98.8890

     11  O    Isotropic =    39.8133   Anisotropy =   300.8405

     12  C    Isotropic =    43.3692   Anisotropy =    89.1563

     13  C    Isotropic =    75.8216   Anisotropy =   132.5957

     14  C    Isotropic =    84.6758   Anisotropy =   120.9495

     15  C    Isotropic =    50.6401   Anisotropy =    98.7934

     16  O    Isotropic =    39.7781   Anisotropy =   300.7050

     17  H    Isotropic =    26.0654   Anisotropy =     2.3644

     18  H    Isotropic =    25.9750   Anisotropy =     7.4827

     19  H    Isotropic =    24.7880   Anisotropy =     3.5199

     20  H    Isotropic =    25.9762   Anisotropy =     7.4761

     21  H    Isotropic =    26.0634   Anisotropy =     2.3647

     22  H    Isotropic =    24.7866   Anisotropy =     3.5183

     23  H    Isotropic =    25.9757   Anisotropy =     7.4843

     24  H    Isotropic =    26.0658   Anisotropy =     2.3631

     25  H    Isotropic =    24.7882   Anisotropy =     3.5190

  Exact polarizability: 162.526   0.010 162.517   0.008   0.008 116.215
 Approx polarizability: 231.362   0.026 231.340   0.019   0.025 223.249

                      1                      2                      3
                      A                      A                      A
 Frequencies --     37.3775                37.8919                55.3298
 Red. masses --      4.8339                 4.8401                 4.5708
 Frc consts  --      0.0040                 0.0041                 0.0082
 IR Inten    --      0.1569                 0.1536                 0.1412

                      4                      5                      6
                      A                      A                      A
 Frequencies --     58.4438                58.5248                77.2576
 Red. masses --      5.4004                 5.3966                 5.3504
 Frc consts  --      0.0109                 0.0109                 0.0188
 IR Inten    --      0.3675                 0.3688                 0.4461

                      7                      8                      9
                      A                      A                      A
 Frequencies --    201.9300               222.3013               222.4722
 Red. masses --      5.6717                 5.6179                 5.6217
 Frc consts  --      0.1363                 0.1636                 0.1639
 IR Inten    --      0.5747                 2.6652                 2.6677

                     10                     11                     12
                      A                      A                      A
 Frequencies --    279.9108               294.4325               294.6033
 Red. masses --      8.1132                 6.4481                 6.4498
 Frc consts  --      0.3745                 0.3293                 0.3298
 IR Inten    --      2.9422                 2.5666                 2.5641

                     13                     14                     15
                      A                      A                      A
 Frequencies --    479.9490               495.3940               495.4592
 Red. masses --     10.9405                13.6855                13.6907
 Frc consts  --      1.4848                 1.9789                 1.9801
 IR Inten    --     22.5465                38.1862                38.2057

                     16                     17                     18
                      A                      A                      A
 Frequencies --    611.4677               611.4830               612.0963
 Red. masses --      3.2810                 3.2811                 3.2711
 Frc consts  --      0.7228                 0.7228                 0.7221
 IR Inten    --      9.0123                 9.0259                 3.6129

                     19                     20                     21
                      A                      A                      A
 Frequencies --    658.9783               659.0642               664.3826
 Red. masses --      6.1368                 6.1397                 6.4762
 Frc consts  --      1.5701                 1.5713                 1.6842
 IR Inten    --      5.8215                 5.8282                 0.6538

                     22                     23                     24
                      A                      A                      A
 Frequencies --    755.6359               756.0304               756.0453
 Red. masses --      1.2880                 1.2877                 1.2875
 Frc consts  --      0.4333                 0.4337                 0.4336
 IR Inten    --     33.7380                46.0667                46.1309

                     25                     26                     27
                      A                      A                      A
 Frequencies --    826.8850               827.0024               829.6048
 Red. masses --      1.2421                 1.2418                 1.2353
 Frc consts  --      0.5004                 0.5004                 0.5009
 IR Inten    --     12.0111                12.0255                 4.8179

                     28                     29                     30
                      A                      A                      A
 Frequencies --    878.9389               879.0553               882.4573
 Red. masses --      1.3008                 1.3004                 1.2980
 Frc consts  --      0.5921                 0.5921                 0.5955
 IR Inten    --      1.6109                 1.6180                 0.1966

                     31                     32                     33
                      A                      A                      A
 Frequencies --    900.0627               900.0714               900.1197
 Red. masses --      6.2481                 6.2511                 6.1203
 Frc consts  --      2.9822                 2.9838                 2.9216
 IR Inten    --      3.4404                 3.4493                 3.7553

                     34                     35                     36
                      A                      A                      A
 Frequencies --    924.2075               925.9340               925.9417
 Red. masses --      4.7032                 4.7170                 4.7161
 Frc consts  --      2.3669                 2.3827                 2.3823
 IR Inten    --     14.9078                 3.5808                 3.5921

                     37                     38                     39
                      A                      A                      A
 Frequencies --   1035.7324              1036.0975              1037.8150
 Red. masses --      1.4148                 1.4145                 1.3873
 Frc consts  --      0.8942                 0.8947                 0.8803
 IR Inten    --     13.9734                14.2763                51.8586

                     40                     41                     42
                      A                      A                      A
 Frequencies --   1103.9917              1104.0816              1106.2013
 Red. masses --      2.2010                 2.2041                 2.1803
 Frc consts  --      1.5805                 1.5830                 1.5719
 IR Inten    --      1.1609                 1.1644                 1.5443

                     43                     44                     45
                      A                      A                      A
 Frequencies --   1140.7037              1140.7524              1147.5359
 Red. masses --      5.6059                 5.6064                 4.7319
 Frc consts  --      4.2978                 4.2985                 3.6713
 IR Inten    --      2.4500                 2.4418                24.8282

                     46                     47                     48
                      A                      A                      A
 Frequencies --   1197.1647              1197.1903              1200.8586
 Red. masses --      2.2391                 2.2390                 2.4377
 Frc consts  --      1.8907                 1.8908                 2.0711
 IR Inten    --      9.3425                 9.3333                 1.1834

                     49                     50                     51
                      A                      A                      A
 Frequencies --   1249.4463              1249.6182              1250.1640
 Red. masses --      1.6659                 1.6650                 1.7061
 Frc consts  --      1.5323                 1.5318                 1.5711
 IR Inten    --     19.1492                18.8404                 4.7656

                     52                     53                     54
                      A                      A                      A
 Frequencies --   1417.8585              1417.8873              1419.6278
 Red. masses --      2.5684                 2.5686                 2.5345
 Frc consts  --      3.0421                 3.0425                 3.0095
 IR Inten    --      1.0952                 1.0903                 3.8818

                     55                     56                     57
                      A                      A                      A
 Frequencies --   1490.2674              1496.6078              1496.6247
 Red. masses --      5.5394                 5.4234                 5.4233
 Frc consts  --      7.2483                 7.1571                 7.1571
 IR Inten    --     15.7775                11.2265                11.2112

                     58                     59                     60
                      A                      A                      A
 Frequencies --   1605.0179              1607.2960              1607.3075
 Red. masses --      4.8348                 4.8705                 4.8689
 Frc consts  --      7.3382                 7.4133                 7.4110
 IR Inten    --      3.5011                 1.6348                 1.6355

                     61                     62                     63
                      A                      A                      A
 Frequencies --   3264.5194              3264.5213              3264.6893
 Red. masses --      1.0904                 1.0904                 1.0904
 Frc consts  --      6.8463                 6.8463                 6.8471
 IR Inten    --      5.3061                 5.2945                 1.4786

                     64                     65                     66
                      A                      A                      A
 Frequencies --   3280.1451              3280.1730              3280.2954
 Red. masses --      1.0971                 1.0972                 1.0971
 Frc consts  --      6.9550                 6.9554                 6.9557
 IR Inten    --      1.0040                 0.5010                 0.6224

                     67                     68                     69
                      A                      A                      A
 Frequencies --   3299.0775              3299.1272              3299.1589
 Red. masses --      1.1046                 1.1046                 1.1046
 Frc consts  --      7.0832                 7.0833                 7.0836
 IR Inten    --      2.8904                 3.3136                 0.4733

 - Thermochemistry -
 -------------------
 Temperature   298.150 Kelvin.  Pressure   1.00000 Atm.
 Atom     1 has atomic number  6 and mass  12.00000

 Molecular mass:   232.02893 amu.
 Principal axes and moments of inertia in atomic units:
                           1         2         3
     Eigenvalues --  3613.474753613.674416126.50378
           X            0.99948   0.03235   0.00000
           Y           -0.03235   0.99948  -0.00000
           Z           -0.00000   0.00000   1.00000
 This molecule is an asymmetric top.
 Rotational symmetry number  1.
 Warning -- assumption of classical behavior for rotation
           may cause significant error
 Rotational temperatures (Kelvin)      0.02397     0.02397     0.01414
 Rotational constants (GHZ):           0.49945     0.49942     0.29458
 Zero-point vibrational energy     480206.7 (Joules/Mol)
                                  114.77217 (Kcal/Mol)
 Warning -- explicit consideration of  18 degrees of freedom as
           vibrations may cause significant error
 Vibrational temperatures:     53.78    54.52    79.61    84.09    84.20
          (Kelvin)            111.16   290.53   319.84   320.09   402.73
                              423.62   423.87   690.54   712.76   712.86
                              879.77   879.79   880.67   948.12   948.25
                              955.90  1087.19  1087.76  1087.78  1189.70
                             1189.87  1193.62  1264.60  1264.76  1269.66
                             1294.99  1295.00  1295.07  1329.73  1332.21
                             1332.22  1490.19  1490.71  1493.18  1588.40
                             1588.53  1591.58  1641.22  1641.29  1651.05
                             1722.45  1722.49  1727.77  1797.67  1797.92
                             1798.71  2039.98  2040.02  2042.53  2144.16
                             2153.28  2153.31  2309.26  2312.54  2312.56
                             4696.92  4696.92  4697.16  4719.40  4719.44
                             4719.61  4746.64  4746.71  4746.75

 Zero-point correction=                           0.182901 (Hartree/Particle)
 Thermal correction to Energy=                    0.196489
 Thermal correction to Enthalpy=                  0.197433
 Thermal correction to Gibbs Free Energy=         0.139646
 Sum of electronic and zero-point Energies=          -1029.441974
 Sum of electronic and thermal Energies=             -1029.428387
 Sum of electronic and thermal Enthalpies=           -1029.427443
 Sum of electronic and thermal Free Energies=        -1029.485229

                     E (Thermal)             CV                S
                      KCal/Mol        Cal/Mol-Kelvin    Cal/Mol-Kelvin
 Total                  123.299             50.779            121.622
 Electronic               0.000              0.000              0.000
 Translational            0.889              2.981             42.227
 Rotational               0.889              2.981             32.748
 Vibrational            121.521             44.817             46.648
 Vibration     1          0.594              1.982              5.393
 Vibration     2          0.594              1.982              5.366
 Vibration     3          0.596              1.975              4.617
 Vibration     4          0.596              1.974              4.509
 Vibration     5          0.596              1.974              4.506
 Vibration     6          0.599              1.964              3.959
 Vibration     7          0.639              1.837              2.115
 Vibration     8          0.648              1.807              1.940
 Vibration     9          0.648              1.807              1.939
 Vibration    10          0.680              1.711              1.534
 Vibration    11          0.689              1.684              1.448
 Vibration    12          0.689              1.684              1.447
 Vibration    13          0.836              1.295              0.710
 Vibration    14          0.851              1.260              0.670
 Vibration    15          0.851              1.260              0.670
 Vibration    16          0.971              1.008              0.430
 Vibration    17          0.971              1.008              0.430
 Vibration    18          0.971              1.006              0.429

                           ! Non-Optimized Parameters !
 Normal termination of Gaussian 16 at Sun Aug 23 15:36:18 2020.
 Gaussian 16:  ES64L-G16RevA.03 25-Dec-2016

 ----------------------------------------------------------------------
 # TD(NStates=10, Root=1) B3LYP/6-31G* scf=qc volume pop=NPA density=cu
 rrent Geom=AllCheck Guess=Read
 ----------------------------------------------------------------------

 Structure from the checkpoint file:  "phosphine_9_conf73.chk"
 -------------------
 Title Card Required
 -------------------
 Charge =  0 Multiplicity = 1

                         Standard orientation:
 ---------------------------------------------------------------------
 Center     Atomic      Atomic             Coordinates (Angstroms)
 Number     Number       Type             X           Y           Z
 ---------------------------------------------------------------------
      1          6           0        3.477943   -0.511214    0.975906
      2          6           0        2.069439   -0.755103    0.911825
      3          6           0        1.608801   -0.125520   -0.214184
      4          8           0        2.663153    0.485775   -0.854766
      5          6           0        3.777877    0.247349   -0.115286
      6         15           0       -0.000010    0.000028   -1.070912
      7          6           0       -0.913101   -1.330492   -0.214154
      8          6           0       -1.688266   -1.414659    0.912115
      9          6           0       -2.181336   -2.756391    0.976288
     10          6           0       -1.674762   -3.395368   -0.115119
     11          8           0       -0.911148   -2.549183   -0.854818
     12          6           0       -0.695687    1.456059   -0.214175
     13          6           0       -0.380103    2.170434    0.911224
     14          6           0       -1.295970    3.267957    0.975545
     15          6           0       -2.103748    3.147566   -0.114897
     16          8           0       -1.753033    2.062772   -0.854167
     17          1           0        4.170876   -0.856471    1.730787
     18          1           0        1.468928   -1.326321    1.605485
     19          1           0        4.692327    0.677868   -0.495258
     20          1           0       -1.882381   -0.609019    1.605892
     21          1           0       -2.826557   -3.183887    1.731365
     22          1           0       -1.759314   -4.402542   -0.495114
     23          1           0        0.415500    1.936623    1.604343
     24          1           0       -1.343136    4.041015    1.730104
     25          1           0       -2.934387    3.723705   -0.494434
 ---------------------------------------------------------------------

 SCF Done:  E(RB3LYP) =  -1029.62487556     a.u. after    1 cycles

 Excitation energies and oscillator strengths:

 Excited State   1:      Singlet-A      4.7327 eV  261.97 nm  f=0.1417  <S**2>=0.000
      60 -> 61         0.69383
 This state for optimization and/or second-order correction.
 Total Energy, E(TD-HF/TD-DFT) =  -1029.45095257
 Copying the excited state density for this state as the 1-particle RhoCI density.

 Excited State   2:      Singlet-A      4.7334 eV  261.94 nm  f=0.1419  <S**2>=0.000
      60 -> 62         0.69381

 Excited State   3:      Singlet-A      5.3046 eV  233.73 nm  f=0.0000  <S**2>=0.000
      58 -> 61         0.29821
      58 -> 62        -0.39627
      59 -> 61         0.39802
      59 -> 62         0.29809

 Excited State   4:      Singlet-A      5.3999 eV  229.60 nm  f=0.0002  <S**2>=0.000
      58 -> 61         0.23036
      58 -> 62         0.15780
      59 -> 61        -0.15995
      59 -> 62         0.23132
      60 -> 63         0.58161

 Excited State   5:      Singlet-A      5.4658 eV  226.84 nm  f=0.1683  <S**2>=0.000
      58 -> 61         0.46852
      58 -> 62        -0.13463
      59 -> 61        -0.13451
      59 -> 62        -0.46805

 Excited State   6:      Singlet-A      5.4661 eV  226.83 nm  f=0.1685  <S**2>=0.000
      58 -> 61         0.13446
      58 -> 62         0.46927
      59 -> 61         0.46729
      59 -> 62        -0.13468

 Excited State   7:      Singlet-A      6.0315 eV  205.56 nm  f=0.0118  <S**2>=0.000
      58 -> 61        -0.31242
      58 -> 62        -0.24536
      59 -> 61         0.24496
      59 -> 62        -0.31255
      60 -> 63         0.39004

 Excited State   8:      Singlet-A      6.1711 eV  200.91 nm  f=0.0559  <S**2>=0.000
      54 -> 61         0.12628
      57 -> 61         0.47134
      59 -> 63         0.48430
      60 -> 64        -0.10009

 Excited State   9:      Singlet-A      6.1715 eV  200.90 nm  f=0.0558  <S**2>=0.000
      54 -> 62        -0.12621
      57 -> 62        -0.47106
      58 -> 63         0.48453

 Excited State  10:      Singlet-A      6.2519 eV  198.31 nm  f=0.0683  <S**2>=0.000
      57 -> 61        -0.30530
      57 -> 62        -0.12408
      58 -> 63        -0.19017
      59 -> 63         0.36663
      60 -> 64         0.42888

 The electronic state is 1-A.
 Alpha  occ. eigenvalues --  -77.10443 -19.21552 -19.21552 -19.21551 -10.23919
 Alpha  occ. eigenvalues --  -10.23918 -10.23918 -10.23693 -10.23693 -10.23693
 Alpha  occ. eigenvalues --  -10.19076 -10.19076 -10.19075 -10.18942 -10.18942
 Alpha  occ. eigenvalues --  -10.18941  -6.57105  -4.73366  -4.73366  -4.72863
 Alpha  occ. eigenvalues --   -1.10749  -1.10667  -1.10666  -0.80185  -0.79752
 Alpha  occ. eigenvalues --   -0.79751  -0.77541  -0.73926  -0.73925  -0.64938
 Alpha  occ. eigenvalues --   -0.60003  -0.59870  -0.59870  -0.55795  -0.55795
 Alpha  occ. eigenvalues --   -0.54788  -0.53286  -0.53286  -0.48933  -0.45120
 Alpha  occ. eigenvalues --   -0.45119  -0.44656  -0.42744  -0.42744  -0.42348
 Alpha  occ. eigenvalues --   -0.40363  -0.40312  -0.40312  -0.38831  -0.38831
 Alpha  occ. eigenvalues --   -0.37510  -0.36230  -0.36230  -0.28134  -0.27887
 Alpha  occ. eigenvalues --   -0.27886  -0.27314  -0.23486  -0.23485  -0.20896
 Alpha virt. eigenvalues --   -0.01046  -0.01044   0.01545   0.05283   0.05285
 Alpha virt. eigenvalues --    0.07048   0.07976   0.07980   0.11849   0.11905
 Alpha virt. eigenvalues --    0.12866   0.12866   0.15040   0.15041   0.15578

 Mulliken charges:
               1
     1  C   -0.176335
     2  C   -0.190273
     3  C    0.053296
     4  O   -0.434772
     5  C    0.059965
     6  P    0.397525
     7  C    0.094788
     8  C   -0.182277
     9  C   -0.174435
    10  C    0.088643
    11  O   -0.418730
    12  C    0.119701
    13  C   -0.155598
    14  C   -0.174461
    15  C    0.115793
    16  O   -0.402200
    17  H    0.128958
    18  H    0.132358
    19  H    0.139488
    20  H    0.142071
    21  H    0.143647
    22  H    0.159984
    23  H    0.186593
    24  H    0.164540
    25  H    0.181731
 Sum of Mulliken charges =  -0.00000

 Dipole moment (field-independent basis, Debye):
    X=             -2.9073    Y=              2.3996    Z=              2.6719  Tot=              4.6206
 Quadrupole moment (field-independent basis, Debye-Ang):
   XX=            -91.8680   YY=            -80.9115   ZZ=            -96.8555
   XY=             -2.8522   XZ=             -0.3694   YZ=              0.9282

 Summary of Natural Population Analysis:

                                       Natural Population
                Natural  -----------------------------------------------
    Atom  No    Charge         Core      Valence    Rydberg      Total
 -----------------------------------------------------------------------
      C    1   -0.32909      1.99908     4.31677    0.01324     6.32909
      C    2   -0.34161      1.99891     4.32521    0.01749     6.34161
      C    3   -0.14716      1.99886     4.10958    0.03872     6.14716
      O    4   -0.48342      1.99975     6.46976    0.01391     8.48342
      C    5    0.07192      1.99905     3.90332    0.02571     5.92808
      P    6    1.01109      9.99757     3.92508    0.06626    13.98891
      C    7   -0.07418      1.99886     4.03834    0.03699     6.07418
      C    8   -0.32472      1.99891     4.30920    0.01660     6.32472
      C    9   -0.32229      1.99909     4.31023    0.01297     6.32229
      C   10    0.11463      1.99905     3.86169    0.02463     5.88537
      O   11   -0.46384      1.99974     6.45082    0.01328     8.46384
      C   12   -0.01617      1.99892     3.98021    0.03704     6.01617
      C   13   -0.26991      1.99893     4.25657    0.01441     6.26991
      C   14   -0.31769      1.99910     4.30560    0.01300     6.31769
      C   15    0.16358      1.99905     3.81487    0.02249     5.83642
      O   16   -0.45508      1.99974     6.43611    0.01923     8.45508
      H   17    0.24095      0.00000     0.75858    0.00047     0.75905
      H   18    0.24310      0.00000     0.75591    0.00098     0.75690
      H   19    0.21614      0.00000     0.78327    0.00059     0.78386
      H   20    0.24760      0.00000     0.75166    0.00074     0.75240
      H   21    0.24750      0.00000     0.75198    0.00051     0.75250
      H   22    0.22560      0.00000     0.77390    0.00050     0.77440
      H   23    0.27147      0.00000     0.72781    0.00072     0.72853
      H   24    0.25731      0.00000     0.74219    0.00049     0.74269
      H   25    0.23426      0.00000     0.76523    0.00051     0.76574
 =======================================================================
   * Total *    0.00000     39.98461    79.62391    0.39147   120.00000

 Normal termination of Gaussian 16 at Sun Aug 23 15:45:08 2020.
