 Gaussian 16, Revision A.03,

 ---------------------------------
 # opt=CalcAll B3LYP/6-31G* scf=qc
 ---------------------------------

 -------------------
 Title Card Required
 -------------------
 Symbolic Z-matrix:
 Charge =  0 Multiplicity = 1

 SCF Done:  E(RB3LYP) =  -2415.03618643     a.u. after    8 cycles
 SCF Done:  E(RB3LYP) =  -2415.05035321     a.u. after   17 cycles
 SCF Done:  E(RB3LYP) =  -2415.07855244     a.u. after   17 cycles
 SCF Done:  E(RB3LYP) =  -2415.08093614     a.u. after   17 cycles
 SCF Done:  E(RB3LYP) =  -2415.08431167     a.u. after   17 cycles
 SCF Done:  E(RB3LYP) =  -2415.08552005     a.u. after   17 cycles
 SCF Done:  E(RB3LYP) =  -2415.08560769     a.u. after   17 cycles
 SCF Done:  E(RB3LYP) =  -2415.08595678     a.u. after   17 cycles
 SCF Done:  E(RB3LYP) =  -2415.08620909     a.u. after   15 cycles
 SCF Done:  E(RB3LYP) =  -2415.08623462     a.u. after    6 cycles
 SCF Done:  E(RB3LYP) =  -2415.08624773     a.u. after    2 cycles
 SCF Done:  E(RB3LYP) =  -2415.08623941     a.u. after    2 cycles
 SCF Done:  E(RB3LYP) =  -2415.08624743     a.u. after    4 cycles
 SCF Done:  E(RB3LYP) =  -2415.08624341     a.u. after    3 cycles
 SCF Done:  E(RB3LYP) =  -2415.08624837     a.u. after    4 cycles
 SCF Done:  E(RB3LYP) =  -2415.08624273     a.u. after    3 cycles
 SCF Done:  E(RB3LYP) =  -2415.08624093     a.u. after    2 cycles
 SCF Done:  E(RB3LYP) =  -2415.08624120     a.u. after    2 cycles
 Optimization completed.
    -- Stationary point found.
 Normal termination of Gaussian 16 at Sun Aug 23 07:01:13 2020.

 ----------------------------------------------------------------------
 # freq B3LYP/6-31G* scf=qc volume NMR pop=NPA density=current Geom=All
 Check Guess=Read
 ----------------------------------------------------------------------

 Structure from the checkpoint file:  "phosphine_11_conf42.chk"
 -------------------
 Title Card Required
 -------------------
 Charge =  0 Multiplicity = 1

 SCF Done:  E(RB3LYP) =  -2415.08624120     a.u. after    1 cycles

      1  C    Isotropic =    67.5480   Anisotropy =   140.5753

      2  C    Isotropic =    60.2298   Anisotropy =   160.3046

      3  C    Isotropic =    58.7536   Anisotropy =   177.4364

      4  C    Isotropic =    61.9077   Anisotropy =   168.6222

      5  C    Isotropic =    67.5386   Anisotropy =   140.1138

      6  C    Isotropic =    51.5989   Anisotropy =   109.1456

      7  Cl   Isotropic =   720.9240   Anisotropy =   453.0128

      8  P    Isotropic =   364.8275   Anisotropy =    37.7294

      9  C    Isotropic =    58.7299   Anisotropy =   177.4299

     10  C    Isotropic =    60.2210   Anisotropy =   160.2920

     11  C    Isotropic =    67.5463   Anisotropy =   140.5809

     12  C    Isotropic =    51.6014   Anisotropy =   109.1410

     13  C    Isotropic =    67.5388   Anisotropy =   140.1082

     14  C    Isotropic =    61.8878   Anisotropy =   168.5954

     15  Cl   Isotropic =   720.9889   Anisotropy =   452.8725

     16  C    Isotropic =    58.7587   Anisotropy =   177.4672

     17  C    Isotropic =    60.2127   Anisotropy =   160.2909

     18  C    Isotropic =    67.5554   Anisotropy =   140.5386

     19  C    Isotropic =    51.6005   Anisotropy =   109.1376

     20  C    Isotropic =    67.5392   Anisotropy =   140.1291

     21  C    Isotropic =    61.8957   Anisotropy =   168.6617

     22  Cl   Isotropic =   720.8765   Anisotropy =   453.0370

     23  H    Isotropic =    25.0926   Anisotropy =     6.6331

     24  H    Isotropic =    24.7779   Anisotropy =     8.9730

     25  H    Isotropic =    25.5810   Anisotropy =    12.1165

     26  H    Isotropic =    25.2091   Anisotropy =     8.1414

     27  H    Isotropic =    24.7787   Anisotropy =     8.9719

     28  H    Isotropic =    25.0913   Anisotropy =     6.6352

     29  H    Isotropic =    25.2088   Anisotropy =     8.1412

     30  H    Isotropic =    25.5814   Anisotropy =    12.1168

     31  H    Isotropic =    24.7763   Anisotropy =     8.9700

     32  H    Isotropic =    25.0965   Anisotropy =     6.6242

     33  H    Isotropic =    25.2067   Anisotropy =     8.1420

     34  H    Isotropic =    25.5753   Anisotropy =    12.1143

  Exact polarizability: 280.659   0.023 280.555   0.038  -0.009 185.122
 Approx polarizability: 393.514   0.053 393.327   0.086  -0.021 343.180

                      1                      2                      3
                      A                      A                      A
 Frequencies --     20.5231                22.0191                29.1626
 Red. masses --      4.3930                 4.5778                10.2078
 Frc consts  --      0.0011                 0.0013                 0.0051
 IR Inten    --      0.2892                 0.2887                 0.1659

                      4                      5                      6
                      A                      A                      A
 Frequencies --     29.3517                37.9541                39.5944
 Red. masses --      9.1703                 5.5927                 6.1077
 Frc consts  --      0.0047                 0.0047                 0.0056
 IR Inten    --      0.1797                 0.1372                 0.0898

                      7                      8                      9
                      A                      A                      A
 Frequencies --    109.2308               117.6158               117.6228
 Red. masses --      8.8643                 8.8279                 8.8310
 Frc consts  --      0.0623                 0.0720                 0.0720
 IR Inten    --      0.0248                 0.3558                 0.3537

                     10                     11                     12
                      A                      A                      A
 Frequencies --    181.0313               187.4245               187.6105
 Red. masses --     10.0374                 8.7837                 8.7944
 Frc consts  --      0.1938                 0.1818                 0.1824
 IR Inten    --      0.3311                 0.5726                 0.5700

                     13                     14                     15
                      A                      A                      A
 Frequencies --    263.9641               293.6170               293.6556
 Red. masses --      8.9799                 8.4069                 8.3994
 Frc consts  --      0.3686                 0.4270                 0.4268
 IR Inten    --      0.2156                 0.8984                 0.9105

                     16                     17                     18
                      A                      A                      A
 Frequencies --    310.8457               328.7152               328.7761
 Red. masses --      6.0442                 5.9800                 5.9874
 Frc consts  --      0.3441                 0.3807                 0.3813
 IR Inten    --      0.0032                 1.8798                 1.8989

                     19                     20                     21
                      A                      A                      A
 Frequencies --    383.9572               384.0710               414.5813
 Red. masses --      8.0288                 8.0177                 3.0446
 Frc consts  --      0.6974                 0.6968                 0.3083
 IR Inten    --     20.9517                20.9893                 0.0608

                     22                     23                     24
                      A                      A                      A
 Frequencies --    414.6326               416.6806               426.8751
 Red. masses --      3.0451                 3.2060                 6.6267
 Frc consts  --      0.3084                 0.3280                 0.7115
 IR Inten    --      0.0533                 0.1591                 2.9424

                     25                     26                     27
                      A                      A                      A
 Frequencies --    499.3957               509.3289               509.4972
 Red. masses --      5.5111                 3.6444                 3.6470
 Frc consts  --      0.8098                 0.5570                 0.5578
 IR Inten    --      6.8681                19.9711                19.8609

                     28                     29                     30
                      A                      A                      A
 Frequencies --    531.5658               548.7529               548.8749
 Red. masses --      4.5766                 7.4441                 7.4263
 Frc consts  --      0.7619                 1.3207                 1.3182
 IR Inten    --      9.8376                 5.4358                 5.4575

                     31                     32                     33
                      A                      A                      A
 Frequencies --    644.3590               644.3666               645.2989
 Red. masses --      7.1599                 7.1600                 7.1684
 Frc consts  --      1.7515                 1.7516                 1.7587
 IR Inten    --      0.0370                 0.0366                 0.0957

                     34                     35                     36
                      A                      A                      A
 Frequencies --    718.1501               718.2965               718.6291
 Red. masses --      4.5850                 4.5905                 4.6041
 Frc consts  --      1.3932                 1.3955                 1.4009
 IR Inten    --      1.6539                 1.6707                 0.2902

                     37                     38                     39
                      A                      A                      A
 Frequencies --    746.1015               751.5891               751.6347
 Red. masses --      7.2601                 7.2716                 7.2735
 Frc consts  --      2.3812                 2.4201                 2.4211
 IR Inten    --     14.6044                54.4196                54.3188

                     40                     41                     42
                      A                      A                      A
 Frequencies --    833.6762               834.1135               834.1820
 Red. masses --      1.4169                 1.4323                 1.4321
 Frc consts  --      0.5802                 0.5871                 0.5871
 IR Inten    --     23.3306                32.8874                32.9189

                     43                     44                     45
                      A                      A                      A
 Frequencies --    845.8228               845.8706               848.8980
 Red. masses --      1.2467                 1.2466                 1.2500
 Frc consts  --      0.5255                 0.5255                 0.5307
 IR Inten    --      0.5939                 0.6422                 0.2821

                     46                     47                     48
                      A                      A                      A
 Frequencies --    969.5055               969.5793               970.0009
 Red. masses --      1.2757                 1.2761                 1.2873
 Frc consts  --      0.7065                 0.7068                 0.7136
 IR Inten    --      0.1579                 0.1542                 0.2226

                     49                     50                     51
                      A                      A                      A
 Frequencies --    973.2461               973.3689               976.5230
 Red. masses --      1.3468                 1.3454                 1.3228
 Frc consts  --      0.7516                 0.7511                 0.7432
 IR Inten    --      0.0107                 0.0118                 0.4242

                     52                     53                     54
                      A                      A                      A
 Frequencies --   1027.9504              1027.9893              1029.6127
 Red. masses --      4.7538                 4.7611                 4.6985
 Frc consts  --      2.9596                 2.9644                 2.9347
 IR Inten    --     62.7221                62.6881                 5.1139

                     55                     56                     57
                      A                      A                      A
 Frequencies --   1097.6997              1097.7850              1101.5135
 Red. masses --      7.8841                 7.9170                 8.0716
 Frc consts  --      5.5972                 5.6214                 5.7702
 IR Inten    --     80.7757                81.2587                13.6844

                     58                     59                     60
                      A                      A                      A
 Frequencies --   1118.0515              1118.2696              1121.1942
 Red. masses --      2.1237                 2.1217                 2.1021
 Frc consts  --      1.5641                 1.5633                 1.5569
 IR Inten    --     33.4748                32.8524                 6.3691

                     61                     62                     63
                      A                      A                      A
 Frequencies --   1139.1537              1139.3559              1139.5138
 Red. masses --      1.4007                 1.4012                 1.4019
 Frc consts  --      1.0709                 1.0717                 1.0725
 IR Inten    --      0.1487                 0.8135                 3.1528

                     64                     65                     66
                      A                      A                      A
 Frequencies --   1218.8629              1219.2669              1220.8018
 Red. masses --      1.1568                 1.1572                 1.1517
 Frc consts  --      1.0125                 1.0136                 1.0113
 IR Inten    --      4.8524                 4.7999                 0.9047

                     67                     68                     69
                      A                      A                      A
 Frequencies --   1318.2651              1322.1614              1322.2986
 Red. masses --      6.8748                 7.4369                 7.6394
 Frc consts  --      7.0391                 7.6597                 7.8699
 IR Inten    --      1.3265                 2.6780                 2.6640

                     70                     71                     72
                      A                      A                      A
 Frequencies --   1336.9921              1337.3397              1337.6403
 Red. masses --      1.3388                 1.3362                 1.3507
 Frc consts  --      1.4100                 1.4080                 1.4240
 IR Inten    --      0.3278                 0.5257                 1.4167

                     73                     74                     75
                      A                      A                      A
 Frequencies --   1429.4911              1429.8323              1430.0119
 Red. masses --      2.6365                 2.6464                 2.6422
 Frc consts  --      3.1743                 3.1876                 3.1835
 IR Inten    --     19.2514                 6.4526                 6.1871

                     76                     77                     78
                      A                      A                      A
 Frequencies --   1526.9726              1527.0679              1527.1155
 Red. masses --      2.0790                 2.0911                 2.0807
 Frc consts  --      2.8561                 2.8731                 2.8589
 IR Inten    --     63.0023                26.8082                52.1479

                     79                     80                     81
                      A                      A                      A
 Frequencies --   1610.9976              1611.2116              1611.2710
 Red. masses --      6.6439                 6.6684                 6.6631
 Frc consts  --     10.1592                10.1994                10.1922
 IR Inten    --      3.8624                 3.8173                 3.8108

                     82                     83                     84
                      A                      A                      A
 Frequencies --   1633.3866              1633.4197              1634.4620
 Red. masses --      5.4338                 5.4286                 5.4946
 Frc consts  --      8.5415                 8.5336                 8.6484
 IR Inten    --     29.8370                29.7125                13.1165

                     85                     86                     87
                      A                      A                      A
 Frequencies --   3188.0206              3188.1321              3188.1575
 Red. masses --      1.0892                 1.0892                 1.0892
 Frc consts  --      6.5225                 6.5230                 6.5226
 IR Inten    --      5.4711                 5.3655                 1.8472

                     88                     89                     90
                      A                      A                      A
 Frequencies --   3205.7421              3205.8392              3206.3886
 Red. masses --      1.0878                 1.0878                 1.0879
 Frc consts  --      6.5867                 6.5870                 6.5897
 IR Inten    --      0.8628                 0.8677                 0.6502

                     91                     92                     93
                      A                      A                      A
 Frequencies --   3222.5926              3222.6090              3222.7316
 Red. masses --      1.0937                 1.0937                 1.0937
 Frc consts  --      6.6922                 6.6924                 6.6924
 IR Inten    --      2.4359                 2.1848                10.0327

                     94                     95                     96
                      A                      A                      A
 Frequencies --   3223.6192              3223.6735              3223.9063
 Red. masses --      1.0940                 1.0939                 1.0941
 Frc consts  --      6.6979                 6.6979                 6.7001
 IR Inten    --      5.6252                 5.5957                 0.1194

 - Thermochemistry -
 -------------------
 Temperature   298.150 Kelvin.  Pressure   1.00000 Atm.
 Atom     1 has atomic number  6 and mass  12.00000

 Molecular mass:   363.97422 amu.
 Principal axes and moments of inertia in atomic units:
                           1         2         3
     Eigenvalues --  ******************************
           X            0.99991   0.01310   0.00001
           Y           -0.01310   0.99991  -0.00000
           Z           -0.00001   0.00000   1.00000
 This molecule is an asymmetric top.
 Rotational symmetry number  1.
 Warning -- assumption of classical behavior for rotation
           may cause significant error
 Rotational temperatures (Kelvin)      0.00723     0.00723     0.00405
 Rotational constants (GHZ):           0.15063     0.15059     0.08439
 Zero-point vibrational energy     643701.6 (Joules/Mol)
                                  153.84838 (Kcal/Mol)
 Warning -- explicit consideration of  30 degrees of freedom as
           vibrations may cause significant error
 Vibrational temperatures:     29.53    31.68    41.96    42.23    54.61
          (Kelvin)             56.97   157.16   169.22   169.23   260.46
                              269.66   269.93   379.79   422.45   422.50
                              447.24   472.95   473.04   552.43   552.59
                              596.49   596.56   599.51   614.18   718.52
                              732.81   733.05   764.80   789.53   789.71
                              927.09   927.10   928.44  1033.26  1033.47
                             1033.95  1073.47  1081.37  1081.43  1199.47
                             1200.10  1200.20  1216.95  1217.02  1221.37
                             1394.90  1395.01  1395.62  1400.28  1400.46
                             1405.00  1478.99  1479.05  1481.38  1579.35
                             1579.47  1584.83  1608.63  1608.94  1613.15
                             1638.99  1639.28  1639.51  1753.67  1754.25
                             1756.46  1896.69  1902.30  1902.49  1923.63
                             1924.13  1924.57  2056.72  2057.21  2057.47
                             2196.97  2197.11  2197.18  2317.87  2318.17
                             2318.26  2350.08  2350.13  2351.63  4586.85
                             4587.01  4587.05  4612.35  4612.49  4613.28
                             4636.59  4636.62  4636.79  4638.07  4638.15
                             4638.48

 Zero-point correction=                           0.245173 (Hartree/Particle)
 Thermal correction to Energy=                    0.264834
 Thermal correction to Enthalpy=                  0.265778
 Thermal correction to Gibbs Free Energy=         0.192124
 Sum of electronic and zero-point Energies=          -2414.841068
 Sum of electronic and thermal Energies=             -2414.821408
 Sum of electronic and thermal Enthalpies=           -2414.820464
 Sum of electronic and thermal Free Energies=        -2414.894117

                     E (Thermal)             CV                S
                      KCal/Mol        Cal/Mol-Kelvin    Cal/Mol-Kelvin
 Total                  166.186             74.128            155.017
 Electronic               0.000              0.000              0.000
 Translational            0.889              2.981             43.569
 Rotational               0.889              2.981             36.372
 Vibrational            164.408             68.167             75.077
 Vibration     1          0.593              1.986              6.583
 Vibration     2          0.593              1.985              6.443
 Vibration     3          0.593              1.984              5.886
 Vibration     4          0.593              1.984              5.873
 Vibration     5          0.594              1.982              5.363
 Vibration     6          0.594              1.981              5.279
 Vibration     7          0.606              1.942              3.283
 Vibration     8          0.608              1.935              3.139
 Vibration     9          0.608              1.935              3.139
 Vibration    10          0.630              1.866              2.318
 Vibration    11          0.632              1.857              2.253
 Vibration    12          0.632              1.857              2.251
 Vibration    13          0.671              1.739              1.635
 Vibration    14          0.688              1.686              1.453
 Vibration    15          0.688              1.686              1.453
 Vibration    16          0.700              1.653              1.358
 Vibration    17          0.712              1.618              1.266
 Vibration    18          0.712              1.618              1.266
 Vibration    19          0.753              1.504              1.024
 Vibration    20          0.753              1.504              1.023
 Vibration    21          0.778              1.439              0.911
 Vibration    22          0.778              1.438              0.910
 Vibration    23          0.780              1.434              0.903
 Vibration    24          0.789              1.412              0.869
 Vibration    25          0.855              1.251              0.660
 Vibration    26          0.864              1.229              0.635
 Vibration    27          0.865              1.229              0.635
 Vibration    28          0.887              1.180              0.584
 Vibration    29          0.904              1.142              0.547
 Vibration    30          0.904              1.142              0.547

                           ! Non-Optimized Parameters !
 Normal termination of Gaussian 16 at Sun Aug 23 07:16:02 2020.
 Gaussian 16:  ES64L-G16RevA.03 25-Dec-2016

 ----------------------------------------------------------------------
 # TD(NStates=10, Root=1) B3LYP/6-31G* scf=qc volume pop=NPA density=cu
 rrent Geom=AllCheck Guess=Read
 ----------------------------------------------------------------------

 Structure from the checkpoint file:  "phosphine_11_conf43.chk"
 -------------------
 Title Card Required
 -------------------
 Charge =  0 Multiplicity = 1

                         Standard orientation:
 ---------------------------------------------------------------------
 Center     Atomic      Atomic             Coordinates (Angstroms)
 Number     Number       Type             X           Y           Z
 ---------------------------------------------------------------------
      1          6           0       -3.532339    1.983597    0.852635
      2          6           0       -2.517658    1.181662    1.371890
      3          6           0       -1.265159    1.088566    0.742298
      4          6           0       -1.047389    1.844902   -0.418992
      5          6           0       -2.048936    2.662066   -0.945326
      6          6           0       -3.285923    2.720462   -0.305584
      7         17           0       -4.552431    3.746147   -0.963333
      8         15           0        0.000144    0.000238    1.547159
      9          6           0       -0.310053   -1.639695    0.742415
     10          6           0        0.235254   -2.771092    1.372002
     11          6           0        0.047844   -4.050730    0.852658
     12          6           0       -0.713385   -4.205511   -0.305677
     13          6           0       -1.280981   -3.104886   -0.945428
     14          6           0       -1.073855   -1.829031   -0.418974
     15         17           0       -0.968670   -5.815078   -0.963571
     16          6           0        1.575348    0.551551    0.742105
     17          6           0        2.283716    1.587899    1.372961
     18          6           0        3.485726    2.065285    0.853720
     19          6           0        3.999229    1.484916   -0.305858
     20          6           0        3.328605    0.444673   -0.946954
     21          6           0        2.120062   -0.013772   -0.420548
     22         17           0        5.520932    2.068390   -0.963645
     23          1           0       -4.497586    2.046398    1.343843
     24          1           0       -2.704411    0.622988    2.285870
     25          1           0       -0.085946    1.804610   -0.921663
     26          1           0       -1.872199    3.246218   -1.842461
     27          1           0        0.812381   -2.653677    2.286052
     28          1           0        0.475813   -4.918194    1.343864
     29          1           0       -1.875150   -3.243714   -1.842651
     30          1           0       -1.519443   -0.976080   -0.921563
     31          1           0        1.894370    2.027765    2.287988
     32          1           0        4.023944    2.868368    1.345966
     33          1           0        3.745038    0.000665   -1.845149
     34          1           0        1.603261   -0.824896   -0.924195
 ---------------------------------------------------------------------

 SCF Done:  E(RB3LYP) =  -2415.08624120     a.u. after    1 cycles

 Excitation energies and oscillator strengths:

 Excited State   1:      Singlet-A      4.4054 eV  281.44 nm  f=0.1833  <S**2>=0.000
      93 -> 94         0.69575
 This state for optimization and/or second-order correction.
 Total Energy, E(TD-HF/TD-DFT) =  -2414.92434524
 Copying the excited state density for this state as the 1-particle RhoCI density.

 Excited State   2:      Singlet-A      4.4064 eV  281.37 nm  f=0.1838  <S**2>=0.000
      93 -> 95         0.69574

 Excited State   3:      Singlet-A      4.6116 eV  268.85 nm  f=0.0036  <S**2>=0.000
      89 -> 94         0.10999
      90 -> 95        -0.11020
      93 -> 96         0.67973

 Excited State   4:      Singlet-A      4.9172 eV  252.14 nm  f=0.0001  <S**2>=0.000
      88 -> 94        -0.11942
      89 -> 94         0.11805
      89 -> 97        -0.10073
      90 -> 95         0.11816
      93 -> 98         0.64545

 Excited State   5:      Singlet-A      4.9177 eV  252.12 nm  f=0.0001  <S**2>=0.000
      88 -> 95         0.11944
      89 -> 95         0.11844
      90 -> 94        -0.11838
      90 -> 97        -0.10107
      93 -> 99         0.64524

 Excited State   6:      Singlet-A      5.0220 eV  246.88 nm  f=0.0090  <S**2>=0.000
      91 -> 94        -0.12193
      92 -> 95        -0.12209
      93 -> 97         0.66881

 Excited State   7:      Singlet-A      5.2596 eV  235.73 nm  f=0.0017  <S**2>=0.000
      89 -> 94         0.13222
      90 -> 95        -0.13092
      91 -> 94         0.21493
      91 -> 95        -0.38811
      91 -> 98        -0.12500
      92 -> 94         0.39019
      92 -> 95         0.21441
      92 -> 99         0.12402
      93 -> 96        -0.10389

 Excited State   8:      Singlet-A      5.3614 eV  231.26 nm  f=0.0050  <S**2>=0.000
      88 -> 94         0.19165
      89 -> 94        -0.18941
      89 -> 97         0.11244
      90 -> 95        -0.18883
      91 -> 94        -0.12742
      91 -> 96         0.39093
      91 -> 98         0.13951
      92 -> 95         0.12813
      92 -> 96        -0.20674
      92 -> 99         0.13924
      93 -> 98         0.22863

 Excited State   9:      Singlet-A      5.3618 eV  231.24 nm  f=0.0049  <S**2>=0.000
      88 -> 95         0.19091
      89 -> 95         0.18881
      90 -> 94        -0.18911
      90 -> 97        -0.11244
      91 -> 95         0.12877
      91 -> 96         0.20609
      91 -> 99         0.13877
      92 -> 94         0.12838
      92 -> 96         0.39207
      92 -> 98        -0.13968
      93 -> 99        -0.22909

 Excited State  10:      Singlet-A      5.4213 eV  228.70 nm  f=0.1614  <S**2>=0.000
      91 -> 94         0.30659
      91 -> 95         0.34703
      92 -> 94         0.34856
      92 -> 95        -0.30776
      92 -> 96        -0.13736

 The electronic state is 1-A.
 Alpha  occ. eigenvalues -- -101.55493-101.55492-101.55492 -77.10094 -10.26329
 Alpha  occ. eigenvalues --  -10.26328 -10.26327 -10.21418 -10.21417 -10.21417
 Alpha  occ. eigenvalues --  -10.21367 -10.21367 -10.21366 -10.21347 -10.21345
 Alpha  occ. eigenvalues --  -10.21345 -10.21313 -10.21312 -10.21312 -10.21249
 Alpha  occ. eigenvalues --  -10.21247 -10.21247  -9.47125  -9.47124  -9.47124
 Alpha  occ. eigenvalues --   -7.23520  -7.23518  -7.23518  -7.22555  -7.22554
 Alpha  occ. eigenvalues --   -7.22554  -7.22518  -7.22516  -7.22516  -6.56809
 Alpha  occ. eigenvalues --   -4.73069  -4.73069  -4.72564  -0.89964  -0.89791
 Alpha  occ. eigenvalues --   -0.89790  -0.85153  -0.84237  -0.84236  -0.76898
 Alpha  occ. eigenvalues --   -0.76780  -0.76779  -0.76742  -0.73907  -0.73905
 Alpha  occ. eigenvalues --   -0.65058  -0.63150  -0.62987  -0.62986  -0.60497
 Alpha  occ. eigenvalues --   -0.60496  -0.57615  -0.52432  -0.52431  -0.49746
 Alpha  occ. eigenvalues --   -0.48087  -0.47999  -0.47998  -0.47167  -0.47167
 Alpha  occ. eigenvalues --   -0.46321  -0.44340  -0.44246  -0.44245  -0.42725
 Alpha  occ. eigenvalues --   -0.42724  -0.40319  -0.40238  -0.40237  -0.39580
 Alpha  occ. eigenvalues --   -0.37219  -0.37219  -0.37129  -0.35189  -0.35188
 Alpha  occ. eigenvalues --   -0.34135  -0.33460  -0.33459  -0.31867  -0.31862
 Alpha  occ. eigenvalues --   -0.31861  -0.27684  -0.27414  -0.27143  -0.27141
 Alpha  occ. eigenvalues --   -0.25829  -0.25827  -0.22676
 Alpha virt. eigenvalues --   -0.03958  -0.03955  -0.03033  -0.01964  -0.01787
 Alpha virt. eigenvalues --   -0.01785   0.02242   0.02243   0.02402   0.05592
 Alpha virt. eigenvalues --    0.05595   0.10343   0.12155   0.12345   0.12346

 Mulliken charges:
               1
     1  C   -0.113958
     2  C   -0.167710
     3  C   -0.099268
     4  C   -0.149999
     5  C   -0.120906
     6  C   -0.074179
     7  Cl  -0.000355
     8  P    0.446587
     9  C   -0.085183
    10  C   -0.151862
    11  C   -0.121559
    12  C   -0.072740
    13  C   -0.113088
    14  C   -0.159707
    15  Cl   0.000745
    16  C   -0.131306
    17  C   -0.169682
    18  C   -0.124135
    19  C   -0.104055
    20  C   -0.118303
    21  C   -0.174513
    22  Cl  -0.049639
    23  H    0.162538
    24  H    0.149648
    25  H    0.180218
    26  H    0.167285
    27  H    0.156915
    28  H    0.164671
    29  H    0.166896
    30  H    0.161580
    31  H    0.126231
    32  H    0.141943
    33  H    0.144865
    34  H    0.132024
 Sum of Mulliken charges =  -0.00000

 Dipole moment (field-independent basis, Debye):
    X=             -3.9116    Y=             -1.5129    Z=              1.9730  Tot=              4.6349
 Quadrupole moment (field-independent basis, Debye-Ang):
   XX=           -174.4840   YY=           -160.6287   ZZ=           -145.0379
   XY=             -5.6897   XZ=              0.9523   YZ=             -0.4015

 Summary of Natural Population Analysis:

                                       Natural Population
                Natural  -----------------------------------------------
    Atom  No    Charge         Core      Valence    Rydberg      Total
 -----------------------------------------------------------------------
      C    1   -0.24249      1.99893     4.22821    0.01535     6.24249
      C    2   -0.21080      1.99902     4.19616    0.01562     6.21080
      C    3   -0.41470      1.99890     4.38986    0.02594     6.41470
      C    4   -0.19633      1.99899     4.18100    0.01634     6.19633
      C    5   -0.24850      1.99893     4.23389    0.01569     6.24850
      C    6   -0.03697      1.99855     4.01612    0.02230     6.03697
     Cl    7    0.01618      9.99967     6.96447    0.01968    16.98382
      P    8    1.21208      9.99758     3.74049    0.04985    13.78792
      C    9   -0.39305      1.99889     4.37016    0.02400     6.39305
      C   10   -0.18622      1.99901     4.17205    0.01515     6.18622
      C   11   -0.25640      1.99893     4.24147    0.01600     6.25640
      C   12   -0.03428      1.99855     4.01349    0.02224     6.03428
      C   13   -0.23463      1.99893     4.22054    0.01516     6.23463
      C   14   -0.22121      1.99899     4.20561    0.01661     6.22121
     Cl   15    0.01671      9.99967     6.96401    0.01961    16.98329
      C   16   -0.48732      1.99886     4.46320    0.02526     6.48732
      C   17   -0.21959      1.99901     4.20444    0.01614     6.21959
      C   18   -0.26146      1.99894     4.24598    0.01654     6.26146
      C   19   -0.09840      1.99854     4.07766    0.02220     6.09840
      C   20   -0.24397      1.99893     4.22913    0.01591     6.24397
      C   21   -0.25152      1.99899     4.23476    0.01777     6.25152
     Cl   22   -0.02098      9.99968     7.00074    0.02057    17.02098
      H   23    0.25730      0.00000     0.74161    0.00109     0.74270
      H   24    0.24322      0.00000     0.75573    0.00105     0.75678
      H   25    0.26424      0.00000     0.73442    0.00134     0.73576
      H   26    0.26048      0.00000     0.73847    0.00106     0.73952
      H   27    0.24838      0.00000     0.75042    0.00120     0.75162
      H   28    0.25904      0.00000     0.73993    0.00103     0.74096
      H   29    0.26003      0.00000     0.73891    0.00106     0.73997
      H   30    0.25421      0.00000     0.74455    0.00124     0.74579
      H   31    0.23163      0.00000     0.76743    0.00094     0.76837
      H   32    0.24816      0.00000     0.75079    0.00105     0.75184
      H   33    0.24984      0.00000     0.74911    0.00104     0.75016
      H   34    0.23731      0.00000     0.76123    0.00146     0.76269
 =======================================================================
   * Total *   -0.00000     75.97648   109.56602    0.45750   186.00000

 Normal termination of Gaussian 16 at Sun Aug 23 07:33:13 2020.
