 Gaussian 16, Revision A.03,

 ---------------------------------
 # opt=CalcAll B3LYP/6-31G* scf=qc
 ---------------------------------

 -------------------
 Title Card Required
 -------------------
 Symbolic Z-matrix:
 Charge =  0 Multiplicity = 1

 SCF Done:  E(RB3LYP) =  -1333.97185458     a.u. after    7 cycles
 SCF Done:  E(RB3LYP) =  -1333.98957698     a.u. after   17 cycles
 SCF Done:  E(RB3LYP) =  -1333.99605701     a.u. after   15 cycles
 SCF Done:  E(RB3LYP) =  -1333.99780452     a.u. after   15 cycles
 SCF Done:  E(RB3LYP) =  -1333.99874210     a.u. after   15 cycles
 SCF Done:  E(RB3LYP) =  -1333.99892021     a.u. after   13 cycles
 SCF Done:  E(RB3LYP) =  -1333.99893907     a.u. after    5 cycles
 SCF Done:  E(RB3LYP) =  -1333.99896843     a.u. after    9 cycles
 SCF Done:  E(RB3LYP) =  -1333.99897471     a.u. after    5 cycles
 SCF Done:  E(RB3LYP) =  -1333.99897628     a.u. after    3 cycles
 SCF Done:  E(RB3LYP) =  -1333.99897310     a.u. after    2 cycles
 SCF Done:  E(RB3LYP) =  -1333.99897917     a.u. after    5 cycles
 SCF Done:  E(RB3LYP) =  -1333.99897565     a.u. after    5 cycles
 SCF Done:  E(RB3LYP) =  -1333.99898010     a.u. after    2 cycles
 SCF Done:  E(RB3LYP) =  -1333.99897372     a.u. after    2 cycles
 SCF Done:  E(RB3LYP) =  -1333.99897835     a.u. after    2 cycles
 SCF Done:  E(RB3LYP) =  -1333.99897574     a.u. after    2 cycles
 SCF Done:  E(RB3LYP) =  -1333.99897342     a.u. after    2 cycles
 Optimization completed.
    -- Stationary point found.
 Normal termination of Gaussian 16 at Sun Aug 23 16:00:59 2020.

 ----------------------------------------------------------------------
 # freq B3LYP/6-31G* scf=qc volume NMR pop=NPA density=current Geom=All
 Check Guess=Read
 ----------------------------------------------------------------------

 Structure from the checkpoint file:  "phosphine_5_conf192.chk"
 -------------------
 Title Card Required
 -------------------
 Charge =  0 Multiplicity = 1

 SCF Done:  E(RB3LYP) =  -1333.99897342     a.u. after    1 cycles

      1  C    Isotropic =    80.0760   Anisotropy =   136.7424

      2  C    Isotropic =    60.7561   Anisotropy =   171.8560

      3  C    Isotropic =    61.5830   Anisotropy =   173.5466

      4  C    Isotropic =    59.0793   Anisotropy =   162.8283

      5  C    Isotropic =    79.9444   Anisotropy =   137.4485

      6  C    Isotropic =    32.6830   Anisotropy =    98.7786

      7  F    Isotropic =   295.8202   Anisotropy =   112.9206

      8  P    Isotropic =   366.2127   Anisotropy =    39.9297

      9  C    Isotropic =    61.6555   Anisotropy =   173.4668

     10  C    Isotropic =    60.6941   Anisotropy =   171.9191

     11  C    Isotropic =    80.0598   Anisotropy =   136.7277

     12  C    Isotropic =    32.6618   Anisotropy =    98.8297

     13  C    Isotropic =    79.9264   Anisotropy =   137.4296

     14  C    Isotropic =    59.0139   Anisotropy =   162.7912

     15  F    Isotropic =   295.7951   Anisotropy =   113.0758

     16  C    Isotropic =    61.6169   Anisotropy =   173.5182

     17  C    Isotropic =    60.6914   Anisotropy =   171.9018

     18  C    Isotropic =    80.0712   Anisotropy =   136.7278

     19  C    Isotropic =    32.6499   Anisotropy =    98.8427

     20  C    Isotropic =    79.9271   Anisotropy =   137.4400

     21  C    Isotropic =    59.0111   Anisotropy =   162.7594

     22  F    Isotropic =   295.7619   Anisotropy =   113.0700

     23  H    Isotropic =    25.4657   Anisotropy =     5.7404

     24  H    Isotropic =    25.3659   Anisotropy =    12.0423

     25  H    Isotropic =    24.6222   Anisotropy =     8.9327

     26  H    Isotropic =    25.3628   Anisotropy =     4.2527

     27  H    Isotropic =    25.3596   Anisotropy =    12.0193

     28  H    Isotropic =    25.4649   Anisotropy =     5.7371

     29  H    Isotropic =    25.3568   Anisotropy =     4.2590

     30  H    Isotropic =    24.6177   Anisotropy =     8.9191

     31  H    Isotropic =    25.3621   Anisotropy =    12.0045

     32  H    Isotropic =    25.4671   Anisotropy =     5.7340

     33  H    Isotropic =    25.3579   Anisotropy =     4.2590

     34  H    Isotropic =    24.6160   Anisotropy =     8.9138

  Exact polarizability: 226.310  -0.115 226.018  -0.077   0.128 167.742
 Approx polarizability: 338.057  -0.254 337.505  -0.166   0.290 314.901

                      1                      2                      3
                      A                      A                      A
 Frequencies --     22.8462                23.5804                37.2005
 Red. masses --      4.0558                 4.0257                 9.2567
 Frc consts  --      0.0012                 0.0013                 0.0075
 IR Inten    --      0.2529                 0.2518                 0.0934

                      4                      5                      6
                      A                      A                      A
 Frequencies --     37.3635                39.9032                50.5884
 Red. masses --      8.8873                 3.7721                 9.9579
 Frc consts  --      0.0073                 0.0035                 0.0150
 IR Inten    --      0.0928                 0.0079                 0.1151

                      7                      8                      9
                      A                      A                      A
 Frequencies --    132.9054               145.3182               145.7440
 Red. masses --      8.0491                 8.3674                 8.3690
 Frc consts  --      0.0838                 0.1041                 0.1047
 IR Inten    --      0.0232                 0.5239                 0.5170

                     10                     11                     12
                      A                      A                      A
 Frequencies --    208.9643               218.9606               219.3037
 Red. masses --      8.0491                 6.9849                 6.9913
 Frc consts  --      0.2071                 0.1973                 0.1981
 IR Inten    --      0.2895                 0.5252                 0.5266

                     13                     14                     15
                      A                      A                      A
 Frequencies --    307.8943               335.9449               336.0945
 Red. masses --      8.4339                 8.3042                 8.3147
 Frc consts  --      0.4711                 0.5522                 0.5534
 IR Inten    --      1.0295                 0.0437                 0.0449

                     16                     17                     18
                      A                      A                      A
 Frequencies --    397.1320               404.1313               404.1572
 Red. masses --      7.7452                 8.0092                 8.0395
 Frc consts  --      0.7197                 0.7707                 0.7737
 IR Inten    --      0.3019                10.1294                10.0894

                     19                     20                     21
                      A                      A                      A
 Frequencies --    420.5303               420.6509               424.6497
 Red. masses --      3.2826                 3.2773                 3.1336
 Frc consts  --      0.3420                 0.3417                 0.3329
 IR Inten    --      1.1356                 1.1051                 0.0247

                     22                     23                     24
                      A                      A                      A
 Frequencies --    435.0140               435.1382               463.4692
 Red. masses --      6.1409                 6.1534                 6.6390
 Frc consts  --      0.6847                 0.6865                 0.8402
 IR Inten    --     18.9232                19.0426                 7.3875

                     25                     26                     27
                      A                      A                      A
 Frequencies --    532.9761               533.1223               535.4363
 Red. masses --      2.8113                 2.8100                 2.9071
 Frc consts  --      0.4705                 0.4706                 0.4910
 IR Inten    --     21.7915                21.9274                13.4808

                     28                     29                     30
                      A                      A                      A
 Frequencies --    608.0453               629.9576               630.0274
 Red. masses --      7.9075                 7.8316                 7.8284
 Frc consts  --      1.7225                 1.8312                 1.8308
 IR Inten    --      0.0090                 0.0381                 0.0390

                     31                     32                     33
                      A                      A                      A
 Frequencies --    648.2311               648.3828               648.4471
 Red. masses --      7.2769                 7.3784                 7.3808
 Frc consts  --      1.8016                 1.8276                 1.8285
 IR Inten    --      0.0053                 0.1271                 0.1295

                     34                     35                     36
                      A                      A                      A
 Frequencies --    715.0815               715.6235               715.7123
 Red. masses --      4.8081                 4.8268                 4.8278
 Frc consts  --      1.4486                 1.4564                 1.4571
 IR Inten    --      1.0534                 3.9003                 3.9788

                     37                     38                     39
                      A                      A                      A
 Frequencies --    835.7351               835.7638               836.8735
 Red. masses --      1.2637                 1.2621                 1.3249
 Frc consts  --      0.5201                 0.5194                 0.5467
 IR Inten    --      0.5708                 0.5921                11.0111

                     40                     41                     42
                      A                      A                      A
 Frequencies --    839.5045               839.5452               839.7395
 Red. masses --      3.2823                 3.2908                 3.9486
 Frc consts  --      1.3629                 1.3666                 1.6405
 IR Inten    --     61.5474                59.8111                20.5084

                     43                     44                     45
                      A                      A                      A
 Frequencies --    843.5952               843.6546               843.9912
 Red. masses --      1.9823                 1.9719                 1.6975
 Frc consts  --      0.8311                 0.8269                 0.7124
 IR Inten    --     10.6408                10.0107                11.9166

                     46                     47                     48
                      A                      A                      A
 Frequencies --    958.5927               958.6058               959.8283
 Red. masses --      1.2559                 1.2560                 1.2582
 Frc consts  --      0.6800                 0.6800                 0.6829
 IR Inten    --      0.1717                 0.1751                 0.3457

                     49                     50                     51
                      A                      A                      A
 Frequencies --    969.8243               969.8656               973.2058
 Red. masses --      1.3358                 1.3357                 1.3206
 Frc consts  --      0.7403                 0.7402                 0.7369
 IR Inten    --      0.0323                 0.0348                 0.3105

                     52                     53                     54
                      A                      A                      A
 Frequencies --   1034.6864              1034.7601              1035.1598
 Red. masses --      3.0249                 3.0297                 3.0218
 Frc consts  --      1.9080                 1.9113                 1.9078
 IR Inten    --      8.0033                 7.9334                 0.0974

                     55                     56                     57
                      A                      A                      A
 Frequencies --   1102.7588              1103.0214              1108.6726
 Red. masses --      3.6668                 3.6667                 3.5553
 Frc consts  --      2.6272                 2.6284                 2.5748
 IR Inten    --     19.2025                19.2834                 1.9034

                     58                     59                     60
                      A                      A                      A
 Frequencies --   1127.4121              1127.6577              1127.8419
 Red. masses --      1.3302                 1.3303                 1.3289
 Frc consts  --      0.9962                 0.9967                 0.9960
 IR Inten    --      0.8629                 1.3615                 6.8008

                     61                     62                     63
                      A                      A                      A
 Frequencies --   1195.0443              1195.4582              1199.3675
 Red. masses --      1.1829                 1.1847                 1.1798
 Frc consts  --      0.9954                 0.9975                 0.9999
 IR Inten    --     60.3537                61.0253                 2.4610

                     64                     65                     66
                      A                      A                      A
 Frequencies --   1285.2294              1285.4244              1286.1640
 Red. masses --      3.7578                 3.7475                 3.7873
 Frc consts  --      3.6572                 3.6483                 3.6912
 IR Inten    --    167.3790               167.0456                38.2937

                     67                     68                     69
                      A                      A                      A
 Frequencies --   1324.0976              1327.2107              1327.5358
 Red. masses --      2.7149                 2.1700                 2.2734
 Frc consts  --      2.8045                 2.2521                 2.3606
 IR Inten    --      8.8961                 3.9572                 3.8398

                     70                     71                     72
                      A                      A                      A
 Frequencies --   1336.5763              1336.7877              1337.0251
 Red. masses --      2.3962                 2.2465                 1.9687
 Frc consts  --      2.5221                 2.3653                 2.0736
 IR Inten    --      0.3629                 0.3634                 0.8758

                     73                     74                     75
                      A                      A                      A
 Frequencies --   1437.8863              1438.0379              1438.1532
 Red. masses --      2.9866                 2.9970                 2.9902
 Frc consts  --      3.6381                 3.6516                 3.6439
 IR Inten    --      6.9819                 2.5536                 2.5863

                     76                     77                     78
                      A                      A                      A
 Frequencies --   1545.4364              1545.6141              1546.4316
 Red. masses --      2.4104                 2.4063                 2.4460
 Frc consts  --      3.3918                 3.3869                 3.4464
 IR Inten    --    116.4479               116.6074                24.1012

                     79                     80                     81
                      A                      A                      A
 Frequencies --   1633.8876              1633.9447              1633.9845
 Red. masses --      6.9679                 6.9735                 6.9627
 Frc consts  --     10.9596                10.9692                10.9528
 IR Inten    --     11.0209                 9.8815                13.8551

                     82                     83                     84
                      A                      A                      A
 Frequencies --   1653.5013              1653.5298              1654.3721
 Red. masses --      5.8106                 5.8085                 5.8803
 Frc consts  --      9.3602                 9.3570                 9.4823
 IR Inten    --     82.9025                82.7467                22.5146

                     85                     86                     87
                      A                      A                      A
 Frequencies --   3188.7809              3188.8123              3188.9720
 Red. masses --      1.0892                 1.0892                 1.0892
 Frc consts  --      6.5256                 6.5253                 6.5261
 IR Inten    --      6.8652                 2.6693                 3.8692

                     88                     89                     90
                      A                      A                      A
 Frequencies --   3205.8039              3205.8466              3206.4565
 Red. masses --      1.0878                 1.0878                 1.0879
 Frc consts  --      6.5867                 6.5868                 6.5899
 IR Inten    --      2.0000                 2.0528                 0.3602

                     91                     92                     93
                      A                      A                      A
 Frequencies --   3221.8693              3221.9133              3222.1302
 Red. masses --      1.0942                 1.0942                 1.0941
 Frc consts  --      6.6922                 6.6922                 6.6924
 IR Inten    --      3.2724                 3.3119                11.7915

                     94                     95                     96
                      A                      A                      A
 Frequencies --   3222.5985              3222.6872              3222.8831
 Red. masses --      1.0937                 1.0936                 1.0939
 Frc consts  --      6.6919                 6.6920                 6.6944
 IR Inten    --     11.9651                12.0692                 0.3850

 - Thermochemistry -
 -------------------
 Temperature   298.150 Kelvin.  Pressure   1.00000 Atm.
 Atom     1 has atomic number  6 and mass  12.00000

 Molecular mass:   316.06287 amu.
 Principal axes and moments of inertia in atomic units:
                           1         2         3
     Eigenvalues --  8314.504898322.72229**********
           X            0.99962  -0.02765  -0.00003
           Y            0.02765   0.99962   0.00003
           Z            0.00003  -0.00003   1.00000
 This molecule is an asymmetric top.
 Rotational symmetry number  1.
 Warning -- assumption of classical behavior for rotation
           may cause significant error
 Rotational temperatures (Kelvin)      0.01042     0.01041     0.00597
 Rotational constants (GHZ):           0.21706     0.21685     0.12430
 Zero-point vibrational energy     655244.2 (Joules/Mol)
                                  156.60713 (Kcal/Mol)
 Warning -- explicit consideration of  28 degrees of freedom as
           vibrations may cause significant error
 Vibrational temperatures:     32.87    33.93    53.52    53.76    57.41
          (Kelvin)             72.79   191.22   209.08   209.69   300.65
                              315.04   315.53   442.99   483.35   483.57
                              571.38   581.45   581.49   605.05   605.22
                              610.98   625.89   626.07   666.83   766.83
                              767.04   770.37   874.84   906.37   906.47
                              932.66   932.88   932.97  1028.84  1029.62
                             1029.75  1202.44  1202.48  1204.07  1207.86
                             1207.92  1208.20  1213.75  1213.83  1214.32
                             1379.20  1379.22  1380.98  1395.36  1395.42
                             1400.23  1488.68  1488.79  1489.36  1586.62
                             1587.00  1595.13  1622.09  1622.45  1622.71
                             1719.40  1720.00  1725.62  1849.16  1849.44
                             1850.50  1905.08  1909.56  1910.03  1923.04
                             1923.34  1923.68  2068.80  2069.02  2069.18
                             2223.54  2223.79  2224.97  2350.80  2350.88
                             2350.94  2379.02  2379.06  2380.27  4587.94
                             4587.99  4588.22  4612.44  4612.50  4613.38
                             4635.55  4635.61  4635.93  4636.60  4636.73
                             4637.01

 Zero-point correction=                           0.249569 (Hartree/Particle)
 Thermal correction to Energy=                    0.268007
 Thermal correction to Enthalpy=                  0.268951
 Thermal correction to Gibbs Free Energy=         0.199412
 Sum of electronic and zero-point Energies=          -1333.749404
 Sum of electronic and thermal Energies=             -1333.730967
 Sum of electronic and thermal Enthalpies=           -1333.730023
 Sum of electronic and thermal Free Energies=        -1333.799561

                     E (Thermal)             CV                S
                      KCal/Mol        Cal/Mol-Kelvin    Cal/Mol-Kelvin
 Total                  168.177             71.400            146.357
 Electronic               0.000              0.000              0.000
 Translational            0.889              2.981             43.148
 Rotational               0.889              2.981             35.262
 Vibrational            166.399             65.439             67.946
 Vibration     1          0.593              1.985              6.370
 Vibration     2          0.593              1.985              6.307
 Vibration     3          0.594              1.982              5.403
 Vibration     4          0.594              1.982              5.394
 Vibration     5          0.594              1.981              5.264
 Vibration     6          0.595              1.977              4.794
 Vibration     7          0.613              1.920              2.904
 Vibration     8          0.617              1.908              2.733
 Vibration     9          0.617              1.907              2.727
 Vibration    10          0.642              1.827              2.053
 Vibration    11          0.647              1.812              1.968
 Vibration    12          0.647              1.812              1.965
 Vibration    13          0.698              1.659              1.374
 Vibration    14          0.717              1.604              1.231
 Vibration    15          0.717              1.603              1.231
 Vibration    16          0.764              1.476              0.973
 Vibration    17          0.769              1.461              0.948
 Vibration    18          0.769              1.461              0.947
 Vibration    19          0.783              1.426              0.890
 Vibration    20          0.783              1.425              0.890
 Vibration    21          0.787              1.417              0.876
 Vibration    22          0.796              1.394              0.842
 Vibration    23          0.796              1.394              0.842
 Vibration    24          0.821              1.331              0.756
 Vibration    25          0.888              1.177              0.581
 Vibration    26          0.888              1.177              0.580
 Vibration    27          0.890              1.172              0.575
 Vibration    28          0.967              1.015              0.436

                           ! Non-Optimized Parameters !
 Normal termination of Gaussian 16 at Sun Aug 23 16:14:43 2020.
 Gaussian 16:  ES64L-G16RevA.03 25-Dec-2016

 ----------------------------------------------------------------------
 # TD(NStates=10, Root=1) B3LYP/6-31G* scf=qc volume pop=NPA density=cu
 rrent Geom=AllCheck Guess=Read
 ----------------------------------------------------------------------

 Structure from the checkpoint file:  "phosphine_5_conf193.chk"
 -------------------
 Title Card Required
 -------------------
 Charge =  0 Multiplicity = 1

                         Standard orientation:
 ---------------------------------------------------------------------
 Center     Atomic      Atomic             Coordinates (Angstroms)
 Number     Number       Type             X           Y           Z
 ---------------------------------------------------------------------
      1          6           0       -0.499414   -3.315899   -1.125759
      2          6           0       -0.024434   -2.113623   -0.599786
      3          6           0       -0.572278   -1.568160    0.572133
      4          6           0       -1.607950   -2.269956    1.213594
      5          6           0       -2.102481   -3.465743    0.696089
      6          6           0       -1.535077   -3.969794   -0.469057
      7          9           0       -1.998808   -5.131932   -0.972466
      8         15           0        0.000641    0.000369    1.374706
      9          6           0        1.645218    0.288430    0.571584
     10          6           0        1.842579    1.029328   -0.604515
     11          6           0        3.121167    1.219759   -1.130417
     12          6           0        4.206353    0.656867   -0.469315
     13          6           0        4.054637   -0.080268    0.699923
     14          6           0        2.771761   -0.250682    1.217180
     15          9           0        5.444575    0.837219   -0.972554
     16          6           0       -1.071780    1.279966    0.571505
     17          6           0       -1.809432    1.080721   -0.606321
     18          6           0       -2.613963    2.092228   -1.132789
     19          6           0       -2.672088    3.312680   -0.470449
     20          6           0       -1.960528    3.549571    0.700466
     21          6           0       -1.171078    2.524316    1.218192
     22          9           0       -3.447728    4.294311   -0.974184
     23          1           0       -0.080004   -3.747495   -2.028961
     24          1           0        0.786436   -1.600999   -1.108010
     25          1           0       -2.031897   -1.878013    2.134908
     26          1           0       -2.903283   -4.011884    1.183929
     27          1           0        0.992354    1.469788   -1.116082
     28          1           0        3.284428    1.794010   -2.036803
     29          1           0        4.928778   -0.495282    1.191042
     30          1           0        2.644960   -0.808788    2.141622
     31          1           0       -1.763286    0.124755   -1.118741
     32          1           0       -3.190857    1.946695   -2.040517
     33          1           0       -2.040483    4.513484    1.192436
     34          1           0       -0.626397    2.693355    2.143879
 ---------------------------------------------------------------------

 SCF Done:  E(RB3LYP) =  -1333.99897342     a.u. after    1 cycles

 Excitation energies and oscillator strengths:

 Excited State   1:      Singlet-A      4.5722 eV  271.17 nm  f=0.1343  <S**2>=0.000
      81 -> 82         0.69354
 This state for optimization and/or second-order correction.
 Total Energy, E(TD-HF/TD-DFT) =  -1333.83094689
 Copying the excited state density for this state as the 1-particle RhoCI density.

 Excited State   2:      Singlet-A      4.5761 eV  270.94 nm  f=0.1361  <S**2>=0.000
      81 -> 83         0.69359

 Excited State   3:      Singlet-A      4.5863 eV  270.34 nm  f=0.0099  <S**2>=0.000
      81 -> 84         0.68854

 Excited State   4:      Singlet-A      4.9047 eV  252.79 nm  f=0.0018  <S**2>=0.000
      81 -> 85         0.67639

 Excited State   5:      Singlet-A      4.9067 eV  252.69 nm  f=0.0016  <S**2>=0.000
      81 -> 86         0.67596

 Excited State   6:      Singlet-A      5.2393 eV  236.64 nm  f=0.0075  <S**2>=0.000
      79 -> 82         0.10886
      80 -> 83         0.10987
      81 -> 87         0.67231

 Excited State   7:      Singlet-A      5.4168 eV  228.89 nm  f=0.0000  <S**2>=0.000
      75 -> 84        -0.14162
      77 -> 82         0.18248
      78 -> 83        -0.16163
      79 -> 82        -0.26599
      79 -> 83        -0.30987
      79 -> 85        -0.15459
      80 -> 82         0.31016
      80 -> 83        -0.26003
      80 -> 86         0.14077

 Excited State   8:      Singlet-A      5.4449 eV  227.71 nm  f=0.0019  <S**2>=0.000
      76 -> 82         0.21043
      77 -> 83        -0.17406
      77 -> 87        -0.12148
      78 -> 82         0.17546
      79 -> 84         0.31302
      79 -> 86        -0.14304
      80 -> 84         0.39011
      80 -> 85         0.14400
      81 -> 85         0.12425

 Excited State   9:      Singlet-A      5.4462 eV  227.65 nm  f=0.0021  <S**2>=0.000
      76 -> 83        -0.20688
      77 -> 82         0.16138
      78 -> 83         0.18289
      78 -> 87        -0.12119
      79 -> 84         0.38525
      79 -> 85        -0.13597
      80 -> 84        -0.32134
      80 -> 86        -0.15160
      81 -> 86         0.12517

 Excited State  10:      Singlet-A      5.6622 eV  218.97 nm  f=0.0033  <S**2>=0.000
      75 -> 84         0.16271
      76 -> 84        -0.10166
      77 -> 82        -0.24779
      78 -> 83         0.23286
      79 -> 83        -0.21033
      79 -> 85         0.22031
      79 -> 86         0.10430
      80 -> 82         0.36654
      80 -> 85         0.10799
      80 -> 86        -0.23853

 The electronic state is 1-A.
 Alpha  occ. eigenvalues --  -77.09285 -24.70935 -24.70934 -24.70928 -10.27932
 Alpha  occ. eigenvalues --  -10.27931 -10.27924 -10.20803 -10.20802 -10.20798
 Alpha  occ. eigenvalues --  -10.20703 -10.20702 -10.20696 -10.20479 -10.20478
 Alpha  occ. eigenvalues --  -10.20477 -10.20319 -10.20318 -10.20312 -10.20310
 Alpha  occ. eigenvalues --  -10.20310 -10.20306  -6.55986  -4.72248  -4.72248
 Alpha  occ. eigenvalues --   -4.71743  -1.22114  -1.22113  -1.22106  -0.87207
 Alpha  occ. eigenvalues --   -0.86557  -0.86553  -0.77802  -0.76322  -0.76286
 Alpha  occ. eigenvalues --   -0.76284  -0.74869  -0.74865  -0.65458  -0.63138
 Alpha  occ. eigenvalues --   -0.62959  -0.62958  -0.60999  -0.60996  -0.57074
 Alpha  occ. eigenvalues --   -0.54666  -0.54664  -0.54254  -0.49447  -0.49444
 Alpha  occ. eigenvalues --   -0.49381  -0.48019  -0.48018  -0.46312  -0.46308
 Alpha  occ. eigenvalues --   -0.46295  -0.45864  -0.44921  -0.44920  -0.43857
 Alpha  occ. eigenvalues --   -0.43706  -0.43704  -0.42082  -0.40157  -0.40109
 Alpha  occ. eigenvalues --   -0.40107  -0.37163  -0.37156  -0.36439  -0.34998
 Alpha  occ. eigenvalues --   -0.34996  -0.34951  -0.33924  -0.33922  -0.27231
 Alpha  occ. eigenvalues --   -0.26848  -0.26601  -0.26595  -0.25428  -0.25419
 Alpha  occ. eigenvalues --   -0.21918
 Alpha virt. eigenvalues --   -0.02515  -0.02506  -0.02413  -0.01176  -0.01168
 Alpha virt. eigenvalues --   -0.00310   0.05876   0.05894   0.08467   0.10088
 Alpha virt. eigenvalues --    0.10089   0.12847   0.13529   0.13531   0.14052

 Mulliken charges:
               1
     1  C   -0.184418
     2  C   -0.152100
     3  C   -0.077920
     4  C   -0.160096
     5  C   -0.183980
     6  C    0.391379
     7  F   -0.281737
     8  P    0.435677
     9  C   -0.122357
    10  C   -0.163077
    11  C   -0.189862
    12  C    0.350714
    13  C   -0.181972
    14  C   -0.181951
    15  F   -0.299766
    16  C   -0.108898
    17  C   -0.189206
    18  C   -0.178262
    19  C    0.351892
    20  C   -0.200013
    21  C   -0.156206
    22  F   -0.300347
    23  H    0.165257
    24  H    0.179192
    25  H    0.159117
    26  H    0.162112
    27  H    0.155191
    28  H    0.144379
    29  H    0.140538
    30  H    0.129891
    31  H    0.129793
    32  H    0.141466
    33  H    0.138979
    34  H    0.136593
 Sum of Mulliken charges =  -0.00000

 Dipole moment (field-independent basis, Debye):
    X=             -0.9484    Y=             -3.3125    Z=              1.4584  Tot=              3.7415
 Quadrupole moment (field-independent basis, Debye-Ang):
   XX=           -144.2220   YY=           -134.8099   ZZ=           -121.8314
   XY=              4.7329   XZ=             -0.6412   YZ=              0.7272

 Summary of Natural Population Analysis:

                                       Natural Population
                Natural  -----------------------------------------------
    Atom  No    Charge         Core      Valence    Rydberg      Total
 -----------------------------------------------------------------------
      C    1   -0.29756      1.99898     4.28386    0.01473     6.29756
      C    2   -0.19610      1.99901     4.18098    0.01611     6.19610
      C    3   -0.38717      1.99891     4.36318    0.02509     6.38717
      C    4   -0.19204      1.99903     4.17777    0.01524     6.19204
      C    5   -0.30285      1.99899     4.28890    0.01497     6.30285
      C    6    0.45574      1.99844     3.51874    0.02707     5.54426
      F    7   -0.31907      1.99994     7.31354    0.00559     9.31907
      P    8    1.21015      9.99756     3.74077    0.05152    13.78985
      C    9   -0.47551      1.99888     4.44995    0.02668     6.47551
      C   10   -0.21733      1.99900     4.20128    0.01705     6.21733
      C   11   -0.30529      1.99899     4.29101    0.01529     6.30529
      C   12    0.38879      1.99844     3.58487    0.02790     5.61121
      C   13   -0.29702      1.99900     4.28300    0.01503     6.29702
      C   14   -0.23302      1.99903     4.21749    0.01651     6.23302
      F   15   -0.33508      1.99994     7.32962    0.00553     9.33508
      C   16   -0.45472      1.99887     4.43123    0.02461     6.45472
      C   17   -0.27691      1.99900     4.25914    0.01878     6.27691
      C   18   -0.28408      1.99899     4.27029    0.01481     6.28408
      C   19    0.39256      1.99844     3.58116    0.02785     5.60744
      C   20   -0.33159      1.99899     4.31632    0.01628     6.33159
      C   21   -0.18796      1.99902     4.17352    0.01541     6.18796
      F   22   -0.33544      1.99994     7.33000    0.00550     9.33544
      H   23    0.26053      0.00000     0.73829    0.00117     0.73947
      H   24    0.26346      0.00000     0.73536    0.00119     0.73654
      H   25    0.24818      0.00000     0.75061    0.00121     0.75182
      H   26    0.25864      0.00000     0.74018    0.00118     0.74136
      H   27    0.24952      0.00000     0.74880    0.00168     0.75048
      H   28    0.25075      0.00000     0.74805    0.00120     0.74925
      H   29    0.24803      0.00000     0.75073    0.00124     0.75197
      H   30    0.23226      0.00000     0.76684    0.00090     0.76774
      H   31    0.23617      0.00000     0.76247    0.00136     0.76383
      H   32    0.24894      0.00000     0.74986    0.00121     0.75106
      H   33    0.24823      0.00000     0.75060    0.00118     0.75177
      H   34    0.23682      0.00000     0.76208    0.00110     0.76318
 =======================================================================
   * Total *   -0.00000     51.97740   109.59047    0.43213   162.00000

 Normal termination of Gaussian 16 at Sun Aug 23 16:29:16 2020.
