 Gaussian 16, Revision A.03,

 ---------------------------------
 # opt=CalcAll B3LYP/6-31G* scf=qc
 ---------------------------------

 -------------------
 Title Card Required
 -------------------
 Symbolic Z-matrix:
 Charge =  0 Multiplicity = 1

 SCF Done:  E(RB3LYP) =  -1036.28070127     a.u. after    8 cycles
 SCF Done:  E(RB3LYP) =  -1036.28577447     a.u. after   15 cycles
 SCF Done:  E(RB3LYP) =  -1036.29613083     a.u. after   17 cycles
 SCF Done:  E(RB3LYP) =  -1036.29717290     a.u. after   17 cycles
 SCF Done:  E(RB3LYP) =  -1036.29739420     a.u. after   15 cycles
 SCF Done:  E(RB3LYP) =  -1036.29734685     a.u. after    9 cycles
 SCF Done:  E(RB3LYP) =  -1036.29802575     a.u. after   17 cycles
 SCF Done:  E(RB3LYP) =  -1036.29785941     a.u. after   17 cycles
 SCF Done:  E(RB3LYP) =  -1036.29821468     a.u. after   15 cycles
 SCF Done:  E(RB3LYP) =  -1036.29822011     a.u. after    4 cycles
 SCF Done:  E(RB3LYP) =  -1036.29823252     a.u. after    2 cycles
 SCF Done:  E(RB3LYP) =  -1036.29822925     a.u. after    2 cycles
 SCF Done:  E(RB3LYP) =  -1036.29823588     a.u. after    3 cycles
 SCF Done:  E(RB3LYP) =  -1036.29823087     a.u. after    2 cycles
 SCF Done:  E(RB3LYP) =  -1036.29823332     a.u. after    2 cycles
 SCF Done:  E(RB3LYP) =  -1036.29823036     a.u. after    2 cycles
 SCF Done:  E(RB3LYP) =  -1036.29823297     a.u. after    2 cycles
 SCF Done:  E(RB3LYP) =  -1036.29823202     a.u. after    2 cycles
 Optimization completed.
    -- Stationary point found.
 Normal termination of Gaussian 16 at Sun Aug 23 09:58:19 2020.

 ----------------------------------------------------------------------
 # freq B3LYP/6-31G* scf=qc volume NMR pop=NPA density=current Geom=All
 Check Guess=Read
 ----------------------------------------------------------------------

 Structure from the checkpoint file:  "phosphine_1_conf232.chk"
 -------------------
 Title Card Required
 -------------------
 Charge =  0 Multiplicity = 1

 SCF Done:  E(RB3LYP) =  -1036.29823202     a.u. after    1 cycles

      1  C    Isotropic =    68.1615   Anisotropy =   167.3495

      2  C    Isotropic =    68.7230   Anisotropy =   164.1259

      3  C    Isotropic =    60.9919   Anisotropy =   164.1022

      4  C    Isotropic =    56.1352   Anisotropy =   179.4395

      5  C    Isotropic =    62.5670   Anisotropy =   174.0816

      6  C    Isotropic =    68.6779   Anisotropy =   163.8944

      7  P    Isotropic =   361.4646   Anisotropy =    39.6660

      8  C    Isotropic =    56.1237   Anisotropy =   179.4748

      9  C    Isotropic =    62.6132   Anisotropy =   174.0940

     10  C    Isotropic =    68.6868   Anisotropy =   163.8933

     11  C    Isotropic =    68.1694   Anisotropy =   167.2898

     12  C    Isotropic =    68.7291   Anisotropy =   164.0927

     13  C    Isotropic =    61.0369   Anisotropy =   164.1497

     14  C    Isotropic =    56.1118   Anisotropy =   179.4467

     15  C    Isotropic =    61.0008   Anisotropy =   164.1010

     16  C    Isotropic =    68.7179   Anisotropy =   164.1340

     17  C    Isotropic =    68.1592   Anisotropy =   167.3428

     18  C    Isotropic =    68.6857   Anisotropy =   163.8779

     19  C    Isotropic =    62.5773   Anisotropy =   174.0608

     20  H    Isotropic =    25.0193   Anisotropy =     3.6415

     21  H    Isotropic =    24.9272   Anisotropy =     4.5871

     22  H    Isotropic =    24.6116   Anisotropy =     9.2493

     23  H    Isotropic =    25.3953   Anisotropy =    12.2257

     24  H    Isotropic =    25.0464   Anisotropy =     6.0873

     25  H    Isotropic =    25.3986   Anisotropy =    12.2368

     26  H    Isotropic =    25.0488   Anisotropy =     6.0863

     27  H    Isotropic =    25.0239   Anisotropy =     3.6351

     28  H    Isotropic =    24.9310   Anisotropy =     4.5830

     29  H    Isotropic =    24.6139   Anisotropy =     9.2555

     30  H    Isotropic =    24.6116   Anisotropy =     9.2525

     31  H    Isotropic =    24.9254   Anisotropy =     4.5906

     32  H    Isotropic =    25.0201   Anisotropy =     3.6421

     33  H    Isotropic =    25.0484   Anisotropy =     6.0858

     34  H    Isotropic =    25.3984   Anisotropy =    12.2235

  Exact polarizability: 224.151  -0.032 224.013   0.003   0.058 165.141
 Approx polarizability: 330.919  -0.076 330.650   0.008   0.137 308.242

                      1                      2                      3
                      A                      A                      A
 Frequencies --     21.6649                23.7534                37.8521
 Red. masses --      3.7958                 3.7971                 3.6890
 Frc consts  --      0.0010                 0.0013                 0.0031
 IR Inten    --      0.2799                 0.2809                 0.0022

                      4                      5                      6
                      A                      A                      A
 Frequencies --     53.2764                53.4228                70.6489
 Red. masses --      5.2503                 5.2568                 5.1668
 Frc consts  --      0.0088                 0.0088                 0.0152
 IR Inten    --      0.0867                 0.0854                 0.3100

                      7                      8                      9
                      A                      A                      A
 Frequencies --    181.4539               202.3179               202.7111
 Red. masses --      4.5603                 4.6433                 4.6423
 Frc consts  --      0.0885                 0.1120                 0.1124
 IR Inten    --      0.3528                 1.1375                 1.1369

                     10                     11                     12
                      A                      A                      A
 Frequencies --    245.5890               259.7832               260.0668
 Red. masses --      5.7402                 4.7198                 4.7226
 Frc consts  --      0.2040                 0.1877                 0.1882
 IR Inten    --      0.4818                 0.2267                 0.2231

                     13                     14                     15
                      A                      A                      A
 Frequencies --    408.7606               408.8547               412.3836
 Red. masses --      3.0785                 3.0799                 3.5608
 Frc consts  --      0.3031                 0.3033                 0.3568
 IR Inten    --      1.9587                 1.9669                 0.1512

                     16                     17                     18
                      A                      A                      A
 Frequencies --    417.1367               429.3668               429.5480
 Red. masses --      4.6689                 7.3029                 7.3093
 Frc consts  --      0.4786                 0.7932                 0.7946
 IR Inten    --      0.5716                 7.6649                 7.7138

                     19                     20                     21
                      A                      A                      A
 Frequencies --    509.4721               509.5296               516.3005
 Red. masses --      4.2462                 4.2481                 4.5903
 Frc consts  --      0.6494                 0.6498                 0.7209
 IR Inten    --     26.1680                26.1452                11.9670

                     22                     23                     24
                      A                      A                      A
 Frequencies --    632.7136               632.7513               633.3729
 Red. masses --      6.4271                 6.4271                 6.4367
 Frc consts  --      1.5159                 1.5161                 1.5214
 IR Inten    --      0.1820                 0.1814                 0.0162

                     25                     26                     27
                      A                      A                      A
 Frequencies --    691.9080               705.1716               705.2293
 Red. masses --      6.5809                 5.6932                 5.7482
 Frc consts  --      1.8562                 1.6680                 1.6844
 IR Inten    --      0.7763                 1.2010                 1.1590

                     28                     29                     30
                      A                      A                      A
 Frequencies --    712.1851               712.3308               713.2573
 Red. masses --      2.2039                 2.1990                 2.1334
 Frc consts  --      0.6586                 0.6574                 0.6395
 IR Inten    --     26.3445                26.3992                16.5835

                     31                     32                     33
                      A                      A                      A
 Frequencies --    761.3848               762.9018               762.9259
 Red. masses --      1.6153                 1.6485                 1.6478
 Frc consts  --      0.5517                 0.5653                 0.5651
 IR Inten    --     19.1476                24.8707                24.9614

                     34                     35                     36
                      A                      A                      A
 Frequencies --    866.1324               866.2442               868.7118
 Red. masses --      1.2478                 1.2477                 1.2462
 Frc consts  --      0.5515                 0.5516                 0.5541
 IR Inten    --      0.2305                 0.2223                 0.1337

                     37                     38                     39
                      A                      A                      A
 Frequencies --    932.9314               932.9936               934.2132
 Red. masses --      1.3444                 1.3441                 1.3386
 Frc consts  --      0.6894                 0.6893                 0.6883
 IR Inten    --      1.2593                 1.2610                 0.0311

                     40                     41                     42
                      A                      A                      A
 Frequencies --    975.7612               975.8701               977.6005
 Red. masses --      1.3614                 1.3611                 1.3557
 Frc consts  --      0.7637                 0.7637                 0.7634
 IR Inten    --      0.0169                 0.0159                 0.1423

                     43                     44                     45
                      A                      A                      A
 Frequencies --   1000.3744              1000.3923              1001.0981
 Red. masses --      1.2544                 1.2542                 1.2526
 Frc consts  --      0.7396                 0.7395                 0.7396
 IR Inten    --      0.0782                 0.0792                 0.0004

                     46                     47                     48
                      A                      A                      A
 Frequencies --   1015.3754              1015.3827              1015.7643
 Red. masses --      6.3112                 6.3133                 6.3109
 Frc consts  --      3.8337                 3.8350                 3.8364
 IR Inten    --      4.3761                 4.3610                 0.0436

                     49                     50                     51
                      A                      A                      A
 Frequencies --   1052.6914              1052.7526              1052.9234
 Red. masses --      3.3099                 3.3174                 3.2544
 Frc consts  --      2.1611                 2.1662                 2.1258
 IR Inten    --      2.0948                 2.0816                 0.0460

                     52                     53                     54
                      A                      A                      A
 Frequencies --   1107.8379              1108.2068              1109.5399
 Red. masses --      1.8808                 1.8491                 1.6549
 Frc consts  --      1.3600                 1.3380                 1.2004
 IR Inten    --      4.1802                 3.6738                 2.8162

                     55                     56                     57
                      A                      A                      A
 Frequencies --   1110.7731              1110.8619              1116.2713
 Red. masses --      2.1965                 2.2375                 2.6129
 Frc consts  --      1.5967                 1.6268                 1.9183
 IR Inten    --      9.5005                 9.9556                 1.2734

                     58                     59                     60
                      A                      A                      A
 Frequencies --   1193.4880              1193.8966              1193.9311
 Red. masses --      1.1033                 1.0999                 1.1001
 Frc consts  --      0.9259                 0.9238                 0.9239
 IR Inten    --      0.0014                 0.1294                 0.1305

                     61                     62                     63
                      A                      A                      A
 Frequencies --   1219.1860              1219.5266              1220.9468
 Red. masses --      1.1475                 1.1478                 1.1473
 Frc consts  --      1.0049                 1.0057                 1.0077
 IR Inten    --      6.0559                 6.0056                 0.4231

                     64                     65                     66
                      A                      A                      A
 Frequencies --   1325.0298              1328.6340              1328.8953
 Red. masses --      3.4986                 3.4744                 3.5263
 Frc consts  --      3.6191                 3.6136                 3.6690
 IR Inten    --      2.6323                 2.4340                 2.4432

                     67                     68                     69
                      A                      A                      A
 Frequencies --   1365.0941              1365.3422              1365.7319
 Red. masses --      1.6601                 1.6513                 1.6374
 Frc consts  --      1.8226                 1.8137                 1.7994
 IR Inten    --      0.1851                 0.7126                 2.5046

                     70                     71                     72
                      A                      A                      A
 Frequencies --   1480.5029              1480.9434              1481.0132
 Red. masses --      2.1107                 2.1148                 2.1166
 Frc consts  --      2.7258                 2.7328                 2.7353
 IR Inten    --     16.6190                 6.5925                 6.6497

                     73                     74                     75
                      A                      A                      A
 Frequencies --   1531.0877              1531.5438              1531.6519
 Red. masses --      2.0149                 1.9988                 1.9975
 Frc consts  --      2.7830                 2.7624                 2.7609
 IR Inten    --      2.0254                10.1203                10.1553

                     76                     77                     78
                      A                      A                      A
 Frequencies --   1630.1659              1630.4258              1630.4595
 Red. masses --      5.1001                 5.1125                 5.1123
 Frc consts  --      7.9853                 8.0073                 8.0074
 IR Inten    --      0.3995                 0.0452                 0.0454

                     79                     80                     81
                      A                      A                      A
 Frequencies --   1646.1458              1646.1676              1647.9494
 Red. masses --      5.2717                 5.2700                 5.2827
 Frc consts  --      8.4166                 8.4142                 8.4527
 IR Inten    --      3.5043                 3.5111                 0.3211

                     82                     83                     84
                      A                      A                      A
 Frequencies --   3176.0784              3176.1200              3176.1734
 Red. masses --      1.0854                 1.0853                 1.0853
 Frc consts  --      6.4507                 6.4508                 6.4510
 IR Inten    --      2.1333                 1.9577                 1.9147

                     85                     86                     87
                      A                      A                      A
 Frequencies --   3182.6423              3182.6809              3182.7638
 Red. masses --      1.0875                 1.0875                 1.0876
 Frc consts  --      6.4901                 6.4904                 6.4911
 IR Inten    --      0.7610                 0.6822                 0.2536

                     88                     89                     90
                      A                      A                      A
 Frequencies --   3192.8354              3192.8760              3192.9956
 Red. masses --      1.0916                 1.0916                 1.0917
 Frc consts  --      6.5567                 6.5568                 6.5579
 IR Inten    --     10.8917                11.3169                46.0048

                     91                     92                     93
                      A                      A                      A
 Frequencies --   3203.9319              3203.9493              3204.3376
 Red. masses --      1.0941                 1.0941                 1.0942
 Frc consts  --      6.6174                 6.6174                 6.6198
 IR Inten    --     41.8580                41.5106                 4.2921

                     94                     95                     96
                      A                      A                      A
 Frequencies --   3210.1169              3210.1425              3211.0334
 Red. masses --      1.0956                 1.0956                 1.0956
 Frc consts  --      6.6521                 6.6520                 6.6556
 IR Inten    --     19.9819                19.6397                16.3351

 - Thermochemistry -
 -------------------
 Temperature   298.150 Kelvin.  Pressure   1.00000 Atm.
 Atom     1 has atomic number  6 and mass  12.00000

 Molecular mass:   262.09114 amu.
 Principal axes and moments of inertia in atomic units:
                           1         2         3
     Eigenvalues --  5162.203445164.328848679.70638
           X            0.99988  -0.01531  -0.00000
           Y            0.01531   0.99988   0.00002
           Z            0.00000  -0.00002   1.00000
 This molecule is an asymmetric top.
 Rotational symmetry number  1.
 Warning -- assumption of classical behavior for rotation
           may cause significant error
 Rotational temperatures (Kelvin)      0.01678     0.01677     0.00998
 Rotational constants (GHZ):           0.34961     0.34946     0.20793
 Zero-point vibrational energy     719955.5 (Joules/Mol)
                                  172.07350 (Kcal/Mol)
 Warning -- explicit consideration of  21 degrees of freedom as
           vibrations may cause significant error
 Vibrational temperatures:     31.17    34.18    54.46    76.65    76.86
          (Kelvin)            101.65   261.07   291.09   291.66   353.35
                              373.77   374.18   588.12   588.25   593.33
                              600.17   617.76   618.02   733.02   733.10
                              742.84   910.33   910.39   911.28   995.50
                             1014.58  1014.67  1024.68  1024.89  1026.22
                             1095.46  1097.65  1097.68  1246.17  1246.33
                             1249.88  1342.28  1342.37  1344.12  1403.90
                             1404.06  1406.55  1439.32  1439.34  1440.36
                             1460.90  1460.91  1461.46  1514.59  1514.68
                             1514.92  1593.93  1594.46  1596.38  1598.15
                             1598.28  1606.07  1717.16  1717.75  1717.80
                             1754.14  1754.63  1756.67  1906.42  1911.61
                             1911.98  1964.07  1964.42  1964.98  2130.11
                             2130.75  2130.85  2202.89  2203.55  2203.71
                             2345.45  2345.82  2345.87  2368.44  2368.47
                             2371.03  4569.67  4569.73  4569.81  4579.11
                             4579.17  4579.29  4593.78  4593.84  4594.01
                             4609.74  4609.77  4610.33  4618.64  4618.68
                             4619.96

 Zero-point correction=                           0.274217 (Hartree/Particle)
 Thermal correction to Energy=                    0.290142
 Thermal correction to Enthalpy=                  0.291086
 Thermal correction to Gibbs Free Energy=         0.227693
 Sum of electronic and zero-point Energies=          -1036.024015
 Sum of electronic and thermal Energies=             -1036.008090
 Sum of electronic and thermal Enthalpies=           -1036.007146
 Sum of electronic and thermal Free Energies=        -1036.070539

                     E (Thermal)             CV                S
                      KCal/Mol        Cal/Mol-Kelvin    Cal/Mol-Kelvin
 Total                  182.067             62.537            133.420
 Electronic               0.000              0.000              0.000
 Translational            0.889              2.981             42.590
 Rotational               0.889              2.981             33.803
 Vibrational            180.289             56.576             57.028
 Vibration     1          0.593              1.985              6.475
 Vibration     2          0.593              1.985              6.293
 Vibration     3          0.594              1.982              5.368
 Vibration     4          0.596              1.976              4.692
 Vibration     5          0.596              1.976              4.686
 Vibration     6          0.598              1.968              4.135
 Vibration     7          0.630              1.865              2.313
 Vibration     8          0.639              1.837              2.112
 Vibration     9          0.639              1.836              2.108
 Vibration    10          0.660              1.770              1.762
 Vibration    11          0.668              1.746              1.663
 Vibration    12          0.668              1.746              1.661
 Vibration    13          0.773              1.451              0.931
 Vibration    14          0.773              1.451              0.931
 Vibration    15          0.776              1.443              0.918
 Vibration    16          0.780              1.433              0.902
 Vibration    17          0.791              1.406              0.861
 Vibration    18          0.791              1.406              0.860
 Vibration    19          0.865              1.229              0.635
 Vibration    20          0.865              1.229              0.635
 Vibration    21          0.871              1.214              0.619

                           ! Non-Optimized Parameters !
 Normal termination of Gaussian 16 at Sun Aug 23 10:08:51 2020.
 Gaussian 16:  ES64L-G16RevA.03 25-Dec-2016

 ----------------------------------------------------------------------
 # TD(NStates=10, Root=1) B3LYP/6-31G* scf=qc volume pop=NPA density=cu
 rrent Geom=AllCheck Guess=Read
 ----------------------------------------------------------------------

 Structure from the checkpoint file:  "phosphine_1_conf233.chk"
 -------------------
 Title Card Required
 -------------------
 Charge =  0 Multiplicity = 1

                         Standard orientation:
 ---------------------------------------------------------------------
 Center     Atomic      Atomic             Coordinates (Angstroms)
 Number     Number       Type             X           Y           Z
 ---------------------------------------------------------------------
      1          6           0       -4.263410   -0.382274    0.651902
      2          6           0       -4.032914    0.361058   -0.507632
      3          6           0       -2.744574    0.451490   -1.034076
      4          6           0       -1.660979   -0.182367   -0.402632
      5          6           0       -1.906564   -0.928475    0.760189
      6          6           0       -3.198482   -1.028761    1.281241
      7         15           0       -0.000256   -0.000118   -1.206655
      8          6           0        0.672454    1.529316   -0.402895
      9          6           0        0.146660    2.117675    0.757481
     10          6           0        0.706048    3.286631    1.278326
     11          6           0        1.801138    3.882974    0.651279
     12          6           0        2.332107    3.309044   -0.505834
     13          6           0        1.765967    2.148194   -1.032142
     14          6           0        0.988170   -1.347047   -0.402563
     15          6           0        0.980517   -2.602728   -1.033339
     16          6           0        1.703127   -3.673068   -0.506702
     17          6           0        2.462750   -3.500532    0.652350
     18          6           0        2.490671   -2.254708    1.281016
     19          6           0        1.757741   -1.186192    0.759775
     20          1           0       -5.268183   -0.462476    1.058463
     21          1           0       -4.857797    0.861473   -1.008310
     22          1           0       -2.576269    1.016066   -1.948431
     23          1           0       -1.086749   -1.436739    1.258858
     24          1           0       -3.371560   -1.613072    2.181564
     25          1           0       -0.705537    1.663932    1.254437
     26          1           0        0.284609    3.730700    2.176741
     27          1           0        2.234317    4.793177    1.057700
     28          1           0        3.180117    3.771087   -1.004755
     29          1           0        2.172810    1.718147   -1.944647
     30          1           0        0.406936   -2.739675   -1.947324
     31          1           0        1.681791   -4.637910   -1.006851
     32          1           0        3.034664   -4.330468    1.059060
     33          1           0        3.083710   -2.112049    2.180967
     34          1           0        1.788428   -0.221807    1.257886
 ---------------------------------------------------------------------

 SCF Done:  E(RB3LYP) =  -1036.29823202     a.u. after    1 cycles

 Excitation energies and oscillator strengths:

 Excited State   1:      Singlet-A      4.5099 eV  274.91 nm  f=0.1275  <S**2>=0.000
      69 -> 70         0.69700
 This state for optimization and/or second-order correction.
 Total Energy, E(TD-HF/TD-DFT) =  -1036.13249471
 Copying the excited state density for this state as the 1-particle RhoCI density.

 Excited State   2:      Singlet-A      4.5115 eV  274.82 nm  f=0.1281  <S**2>=0.000
      69 -> 71         0.69697

 Excited State   3:      Singlet-A      4.7579 eV  260.59 nm  f=0.0022  <S**2>=0.000
      67 -> 70         0.12422
      68 -> 71        -0.12455
      69 -> 72         0.67459

 Excited State   4:      Singlet-A      5.0580 eV  245.12 nm  f=0.0002  <S**2>=0.000
      66 -> 70         0.16735
      67 -> 71        -0.11199
      68 -> 70         0.11205
      69 -> 74         0.63006

 Excited State   5:      Singlet-A      5.0586 eV  245.09 nm  f=0.0002  <S**2>=0.000
      66 -> 71         0.16774
      67 -> 70        -0.11230
      68 -> 71        -0.11234
      69 -> 75         0.62966

 Excited State   6:      Singlet-A      5.1514 eV  240.68 nm  f=0.0085  <S**2>=0.000
      69 -> 73         0.67915

 Excited State   7:      Singlet-A      5.4272 eV  228.45 nm  f=0.0146  <S**2>=0.000
      63 -> 72        -0.16616
      64 -> 74        -0.14095
      65 -> 75         0.13942
      67 -> 70         0.42317
      68 -> 71        -0.41867
      69 -> 72        -0.16542

 Excited State   8:      Singlet-A      5.5140 eV  224.85 nm  f=0.0005  <S**2>=0.000
      63 -> 74         0.14416
      64 -> 70        -0.12375
      64 -> 72         0.22165
      64 -> 75        -0.11376
      65 -> 71        -0.12285
      65 -> 72         0.17523
      65 -> 74         0.11336
      66 -> 70        -0.22645
      67 -> 70        -0.17373
      67 -> 71         0.20582
      68 -> 70        -0.20937
      68 -> 71        -0.17683
      68 -> 72        -0.16284
      69 -> 74         0.28749

 Excited State   9:      Singlet-A      5.5148 eV  224.82 nm  f=0.0004  <S**2>=0.000
      63 -> 75         0.14444
      64 -> 71         0.12066
      64 -> 72         0.17542
      64 -> 74        -0.11259
      65 -> 70        -0.12290
      65 -> 72        -0.22171
      65 -> 75        -0.11386
      66 -> 71        -0.22545
      67 -> 70         0.20474
      67 -> 71         0.17523
      67 -> 72        -0.16333
      68 -> 70        -0.17700
      68 -> 71         0.21120
      69 -> 75         0.28817

 Excited State  10:      Singlet-A      5.6179 eV  220.69 nm  f=0.0009  <S**2>=0.000
      67 -> 71         0.47902
      68 -> 70         0.48524

 The electronic state is 1-A.
 Alpha  occ. eigenvalues --  -77.08112 -10.19447 -10.19446 -10.19446 -10.19148
 Alpha  occ. eigenvalues --  -10.19147 -10.19144 -10.19118 -10.19117 -10.19116
 Alpha  occ. eigenvalues --  -10.19032 -10.19031 -10.19029 -10.19008 -10.19007
 Alpha  occ. eigenvalues --  -10.19006 -10.18963 -10.18962 -10.18960  -6.54843
 Alpha  occ. eigenvalues --   -4.71102  -4.71102  -4.70601  -0.85560  -0.84846
 Alpha  occ. eigenvalues --   -0.84845  -0.76669  -0.74366  -0.74365  -0.74329
 Alpha  occ. eigenvalues --   -0.73821  -0.73820  -0.64436  -0.60337  -0.60307
 Alpha  occ. eigenvalues --   -0.60305  -0.59207  -0.59207  -0.55449  -0.51435
 Alpha  occ. eigenvalues --   -0.51434  -0.49296  -0.45440  -0.45439  -0.44775
 Alpha  occ. eigenvalues --   -0.44344  -0.44344  -0.44068  -0.41946  -0.41868
 Alpha  occ. eigenvalues --   -0.41867  -0.40379  -0.40377  -0.36843  -0.36352
 Alpha  occ. eigenvalues --   -0.36350  -0.35898  -0.34252  -0.34251  -0.34224
 Alpha  occ. eigenvalues --   -0.31884  -0.31883  -0.26773  -0.25449  -0.25446
 Alpha  occ. eigenvalues --   -0.25242  -0.24704  -0.24703  -0.21146
 Alpha virt. eigenvalues --   -0.01882  -0.01878  -0.00829   0.00173   0.00426
 Alpha virt. eigenvalues --    0.00430   0.06881   0.06888   0.09492   0.11039
 Alpha virt. eigenvalues --    0.11040   0.13902   0.14529   0.14530   0.15165

 Mulliken charges:
               1
     1  C   -0.165219
     2  C   -0.120185
     3  C   -0.175782
     4  C   -0.132321
     5  C   -0.169225
     6  C   -0.121435
     7  P    0.450715
     8  C   -0.085826
     9  C   -0.147435
    10  C   -0.121283
    11  C   -0.122604
    12  C   -0.117621
    13  C   -0.160491
    14  C   -0.102902
    15  C   -0.155999
    16  C   -0.125269
    17  C   -0.148340
    18  C   -0.115332
    19  C   -0.169014
    20  H    0.109944
    21  H    0.114694
    22  H    0.113843
    23  H    0.136028
    24  H    0.119066
    25  H    0.179086
    26  H    0.147198
    27  H    0.146136
    28  H    0.142669
    29  H    0.147460
    30  H    0.132754
    31  H    0.127168
    32  H    0.124470
    33  H    0.129414
    34  H    0.135642
 Sum of Mulliken charges =  -0.00000

 Dipole moment (field-independent basis, Debye):
    X=              2.7614    Y=              2.5442    Z=             -0.1971  Tot=              3.7599
 Quadrupole moment (field-independent basis, Debye-Ang):
   XX=           -119.8233   YY=           -107.2598   ZZ=           -110.6491
   XY=              3.1006   XZ=              0.2677   YZ=              1.3247

 Summary of Natural Population Analysis:

                                       Natural Population
                Natural  -----------------------------------------------
    Atom  No    Charge         Core      Valence    Rydberg      Total
 -----------------------------------------------------------------------
      C    1   -0.29018      1.99909     4.27456    0.01653     6.29018
      C    2   -0.23989      1.99910     4.22596    0.01483     6.23989
      C    3   -0.23917      1.99902     4.22378    0.01637     6.23917
      C    4   -0.48370      1.99887     4.45878    0.02605     6.48370
      C    5   -0.24875      1.99899     4.23191    0.01785     6.24875
      C    6   -0.23467      1.99909     4.22091    0.01467     6.23467
      P    7    1.24229      9.99750     3.70996    0.05025    13.75771
      C    8   -0.38500      1.99891     4.36079    0.02530     6.38500
      C    9   -0.20217      1.99900     4.18706    0.01611     6.20217
      C   10   -0.23239      1.99909     4.21917    0.01414     6.23239
      C   11   -0.19975      1.99909     4.18683    0.01382     6.19975
      C   12   -0.23287      1.99910     4.21960    0.01417     6.23287
      C   13   -0.20836      1.99902     4.19408    0.01526     6.20836
      C   14   -0.42785      1.99887     4.40482    0.02416     6.42785
      C   15   -0.20677      1.99901     4.19216    0.01560     6.20677
      C   16   -0.24788      1.99910     4.23382    0.01496     6.24788
      C   17   -0.25462      1.99909     4.24005    0.01548     6.25462
      C   18   -0.22299      1.99909     4.20969    0.01421     6.22299
      C   19   -0.25210      1.99899     4.23569    0.01743     6.25210
      H   20    0.22642      0.00000     0.77268    0.00090     0.77358
      H   21    0.22986      0.00000     0.76920    0.00094     0.77014
      H   22    0.22348      0.00000     0.77557    0.00095     0.77652
      H   23    0.23890      0.00000     0.75953    0.00157     0.76110
      H   24    0.23283      0.00000     0.76628    0.00088     0.76717
      H   25    0.26311      0.00000     0.73565    0.00124     0.73689
      H   26    0.24585      0.00000     0.75329    0.00086     0.75415
      H   27    0.24205      0.00000     0.75712    0.00083     0.75795
      H   28    0.24291      0.00000     0.75618    0.00091     0.75709
      H   29    0.24105      0.00000     0.75779    0.00117     0.75895
      H   30    0.23462      0.00000     0.76418    0.00120     0.76538
      H   31    0.23629      0.00000     0.76283    0.00087     0.76371
      H   32    0.23280      0.00000     0.76632    0.00088     0.76720
      H   33    0.23749      0.00000     0.76163    0.00088     0.76251
      H   34    0.23916      0.00000     0.75952    0.00132     0.76084
 =======================================================================
   * Total *   -0.00000     45.98001    91.64739    0.37260   138.00000

 Normal termination of Gaussian 16 at Sun Aug 23 10:20:10 2020.
