 Gaussian 16, Revision A.03,

 ---------------------------------
 # opt=CalcAll B3LYP/6-31G* scf=qc
 ---------------------------------

 -------------------
 Title Card Required
 -------------------
 Symbolic Z-matrix:
 Charge =  0 Multiplicity = 1

 SCF Done:  E(RB3LYP) =  -814.875945145     a.u. after    7 cycles
 SCF Done:  E(RB3LYP) =  -814.901074163     a.u. after   15 cycles
 SCF Done:  E(RB3LYP) =  -814.904409808     a.u. after   13 cycles
 SCF Done:  E(RB3LYP) =  -814.906921182     a.u. after   11 cycles
 SCF Done:  E(RB3LYP) =  -814.907854035     a.u. after   13 cycles
 SCF Done:  E(RB3LYP) =  -814.907964727     a.u. after   11 cycles
 SCF Done:  E(RB3LYP) =  -814.907980275     a.u. after    9 cycles
 SCF Done:  E(RB3LYP) =  -814.907980385     a.u. after    3 cycles
 SCF Done:  E(RB3LYP) =  -814.907980180     a.u. after    2 cycles
 SCF Done:  E(RB3LYP) =  -814.907979703     a.u. after    3 cycles
 SCF Done:  E(RB3LYP) =  -814.907979614     a.u. after    2 cycles
 Optimization completed.
    -- Stationary point found.
 Normal termination of Gaussian 16 at Sun Aug 23 09:45:04 2020.

 ----------------------------------------------------------------------
 # freq B3LYP/6-31G* scf=qc volume NMR pop=NPA density=current Geom=All
 Check Guess=Read
 ----------------------------------------------------------------------

 Structure from the checkpoint file:  "phosphine_2_conf282.chk"
 -------------------
 Title Card Required
 -------------------
 Charge =  0 Multiplicity = 1

 SCF Done:  E(RB3LYP) =  -814.907979613     a.u. after    1 cycles

      1  C    Isotropic =   176.4037   Anisotropy =    18.6347

      2  C    Isotropic =   163.8767   Anisotropy =    17.2601

      3  C    Isotropic =   158.7234   Anisotropy =    23.5968

      4  C    Isotropic =   158.7666   Anisotropy =    20.7562

      5  H    Isotropic =    30.5672   Anisotropy =     7.6154

      6  H    Isotropic =    30.6975   Anisotropy =     4.4164

      7  P    Isotropic =   405.3525   Anisotropy =    34.9881

      8  C    Isotropic =   160.5192   Anisotropy =    19.9317

      9  H    Isotropic =    30.5546   Anisotropy =     6.8667

     10  H    Isotropic =    31.0089   Anisotropy =     7.0894

     11  C    Isotropic =   164.3418   Anisotropy =    18.5912

     12  C    Isotropic =   164.1519   Anisotropy =    17.2804

     13  C    Isotropic =   176.0157   Anisotropy =    18.7954

     14  C    Isotropic =   160.6434   Anisotropy =    24.5749

     15  H    Isotropic =    30.5080   Anisotropy =     5.4895

     16  H    Isotropic =    30.4756   Anisotropy =     4.9806

     17  C    Isotropic =   159.3982   Anisotropy =    13.4076

     18  C    Isotropic =   168.2609   Anisotropy =    12.0077

     19  C    Isotropic =   176.4188   Anisotropy =    19.1351

     20  H    Isotropic =    31.1688   Anisotropy =    10.3378

     21  H    Isotropic =    31.4635   Anisotropy =     8.3679

     22  H    Isotropic =    30.9605   Anisotropy =     6.0606

     23  H    Isotropic =    30.4732   Anisotropy =     9.0151

     24  H    Isotropic =    30.7657   Anisotropy =     6.6352

     25  H    Isotropic =    30.5792   Anisotropy =     5.5427

     26  H    Isotropic =    30.4842   Anisotropy =     7.4355

     27  H    Isotropic =    30.7734   Anisotropy =     4.9873

     28  H    Isotropic =    30.4816   Anisotropy =     7.2736

     29  H    Isotropic =    30.5005   Anisotropy =     9.0083

     30  H    Isotropic =    30.8790   Anisotropy =     7.1983

     31  H    Isotropic =    31.5215   Anisotropy =     7.8026

     32  H    Isotropic =    31.1728   Anisotropy =    10.4798

     33  H    Isotropic =    30.9871   Anisotropy =     6.1694

     34  H    Isotropic =    30.5043   Anisotropy =     7.1651

     35  H    Isotropic =    30.5004   Anisotropy =     8.4590

     36  H    Isotropic =    30.0792   Anisotropy =     5.5971

     37  H    Isotropic =    30.8237   Anisotropy =     9.3718

     38  H    Isotropic =    31.0211   Anisotropy =     6.1128

     39  H    Isotropic =    31.1874   Anisotropy =    10.2249

     40  H    Isotropic =    31.5713   Anisotropy =     9.0351

  Exact polarizability: 170.180  -0.165 163.469   0.975   2.516 126.761
 Approx polarizability: 212.791   0.421 211.207   0.727   5.387 198.739

                      1                      2                      3
                      A                      A                      A
 Frequencies --      8.4200                30.2281                33.4378
 Red. masses --      2.8620                 2.5369                 2.4131
 Frc consts  --      0.0001                 0.0014                 0.0016
 IR Inten    --      0.0029                 0.0095                 0.0185

                      4                      5                      6
                      A                      A                      A
 Frequencies --     47.9199                55.0956                66.7703
 Red. masses --      2.7961                 2.9883                 2.9484
 Frc consts  --      0.0038                 0.0053                 0.0077
 IR Inten    --      0.0219                 0.0074                 0.0637

                      7                      8                      9
                      A                      A                      A
 Frequencies --     89.4030               118.4756               126.4934
 Red. masses --      2.5719                 2.1081                 1.8871
 Frc consts  --      0.0121                 0.0174                 0.0178
 IR Inten    --      0.0384                 0.0813                 0.0066

                     10                     11                     12
                      A                      A                      A
 Frequencies --    144.2624               173.6816               180.5901
 Red. masses --      1.7294                 1.8531                 2.4534
 Frc consts  --      0.0212                 0.0329                 0.0471
 IR Inten    --      0.5263                 0.0345                 0.2059

                     13                     14                     15
                      A                      A                      A
 Frequencies --    211.0686               231.1975               237.8090
 Red. masses --      1.7241                 1.8681                 1.7805
 Frc consts  --      0.0453                 0.0588                 0.0593
 IR Inten    --      0.0718                 0.1462                 0.3590

                     16                     17                     18
                      A                      A                      A
 Frequencies --    249.2682               285.2916               285.8499
 Red. masses --      1.7339                 1.5924                 1.5556
 Frc consts  --      0.0635                 0.0764                 0.0749
 IR Inten    --      0.0466                 0.2503                 0.0520

                     19                     20                     21
                      A                      A                      A
 Frequencies --    324.8526               341.5703               384.6637
 Red. masses --      2.3371                 2.2052                 2.5117
 Frc consts  --      0.1453                 0.1516                 0.2190
 IR Inten    --      0.2798                 0.4164                 0.3130

                     22                     23                     24
                      A                      A                      A
 Frequencies --    426.9971               436.4786               471.4093
 Red. masses --      2.4332                 2.3203                 2.8179
 Frc consts  --      0.2614                 0.2604                 0.3690
 IR Inten    --      1.4991                 1.8153                 2.9424

                     25                     26                     27
                      A                      A                      A
 Frequencies --    620.0771               684.8654               703.4392
 Red. masses --      3.0470                 1.9646                 2.1678
 Frc consts  --      0.6903                 0.5429                 0.6320
 IR Inten    --      5.3399                 2.1940                 3.6176

                     28                     29                     30
                      A                      A                      A
 Frequencies --    726.8063               747.4362               764.2090
 Red. masses --      1.3097                 1.6645                 1.3665
 Frc consts  --      0.4076                 0.5479                 0.4702
 IR Inten    --     10.8941                 9.2231                 4.5404

                     31                     32                     33
                      A                      A                      A
 Frequencies --    786.3111               791.7534               798.5030
 Red. masses --      1.3512                 1.3809                 1.7896
 Frc consts  --      0.4922                 0.5100                 0.6723
 IR Inten    --      0.8342                 3.4695                 5.5857

                     34                     35                     36
                      A                      A                      A
 Frequencies --    865.6443               879.2550               886.9615
 Red. masses --      2.3522                 2.4041                 1.7909
 Frc consts  --      1.0385                 1.0950                 0.8301
 IR Inten    --      0.8402                 0.5635                 1.5284

                     37                     38                     39
                      A                      A                      A
 Frequencies --    898.7781               925.6355               934.3808
 Red. masses --      1.3853                 1.4244                 1.5232
 Frc consts  --      0.6593                 0.7191                 0.7835
 IR Inten    --      2.3454                 4.4511                 9.8750

                     40                     41                     42
                      A                      A                      A
 Frequencies --    982.3704               984.3258               989.1101
 Red. masses --      2.0974                 1.8555                 1.9031
 Frc consts  --      1.1926                 1.0592                 1.0970
 IR Inten    --      2.1986                 1.8336                 8.1102

                     43                     44                     45
                      A                      A                      A
 Frequencies --   1053.6279              1071.4000              1076.2759
 Red. masses --      1.4638                 1.8796                 2.0341
 Frc consts  --      0.9574                 1.2712                 1.3883
 IR Inten    --      0.4859                 1.6527                 1.3015

                     46                     47                     48
                      A                      A                      A
 Frequencies --   1085.0646              1085.8990              1099.2969
 Red. masses --      1.7820                 1.5193                 1.3459
 Frc consts  --      1.2362                 1.0555                 0.9583
 IR Inten    --      1.4558                 0.3714                 1.9852

                     49                     50                     51
                      A                      A                      A
 Frequencies --   1112.3072              1121.5170              1126.3349
 Red. masses --      1.7268                 1.7166                 1.8172
 Frc consts  --      1.2588                 1.2722                 1.3583
 IR Inten    --      0.5276                 2.7281                 4.2531

                     52                     53                     54
                      A                      A                      A
 Frequencies --   1204.0406              1226.7831              1234.5280
 Red. masses --      1.4014                 1.4284                 1.4209
 Frc consts  --      1.1970                 1.2666                 1.2759
 IR Inten    --      2.3939                 4.9039                 6.0216

                     55                     56                     57
                      A                      A                      A
 Frequencies --   1248.9456              1260.3101              1267.3494
 Red. masses --      1.3979                 1.3818                 1.3396
 Frc consts  --      1.2848                 1.2932                 1.2677
 IR Inten    --      2.5076                 1.2808                 1.4910

                     58                     59                     60
                      A                      A                      A
 Frequencies --   1315.0704              1319.8681              1321.8215
 Red. masses --      1.2336                 1.1926                 1.2358
 Frc consts  --      1.2570                 1.2241                 1.2722
 IR Inten    --      2.7662                 1.9039                 0.5671

                     61                     62                     63
                      A                      A                      A
 Frequencies --   1336.9708              1339.8955              1343.8798
 Red. masses --      1.1454                 1.1396                 1.1418
 Frc consts  --      1.2063                 1.2054                 1.2150
 IR Inten    --      1.9252                 3.6060                 1.4203

                     64                     65                     66
                      A                      A                      A
 Frequencies --   1391.5943              1393.0580              1395.1344
 Red. masses --      1.4042                 1.4127                 1.3436
 Frc consts  --      1.6022                 1.6152                 1.5408
 IR Inten    --      0.6003                 1.9063                15.3631

                     67                     68                     69
                      A                      A                      A
 Frequencies --   1398.2561              1399.5101              1403.8031
 Red. masses --      1.3323                 1.3208                 1.4483
 Frc consts  --      1.5347                 1.5242                 1.6816
 IR Inten    --      6.8432                 9.6916                 3.2806

                     70                     71                     72
                      A                      A                      A
 Frequencies --   1441.4221              1442.6638              1442.7438
 Red. masses --      1.2587                 1.2586                 1.2614
 Frc consts  --      1.5409                 1.5433                 1.5469
 IR Inten    --      6.4756                 7.6287                 2.3101

                     73                     74                     75
                      A                      A                      A
 Frequencies --   1486.5426              1490.9854              1496.9410
 Red. masses --      1.0847                 1.0871                 1.0819
 Frc consts  --      1.4123                 1.4238                 1.4284
 IR Inten    --      1.4746                 1.5079                 7.5806

                     76                     77                     78
                      A                      A                      A
 Frequencies --   1516.3116              1516.7673              1517.2235
 Red. masses --      1.0766                 1.0702                 1.0711
 Frc consts  --      1.4584                 1.4506                 1.4528
 IR Inten    --      0.4775                 1.2540                 4.0359

                     79                     80                     81
                      A                      A                      A
 Frequencies --   1519.2905              1520.1454              1521.2543
 Red. masses --      1.0726                 1.0796                 1.0807
 Frc consts  --      1.4587                 1.4699                 1.4735
 IR Inten    --      0.9806                 2.3281                 0.7481

                     82                     83                     84
                      A                      A                      A
 Frequencies --   1532.3687              1532.5106              1533.1319
 Red. masses --      1.0537                 1.0551                 1.0585
 Frc consts  --      1.4578                 1.4600                 1.4659
 IR Inten    --      8.1651                 4.6028                 4.1784

                     85                     86                     87
                      A                      A                      A
 Frequencies --   1537.9981              1538.5167              1538.6456
 Red. masses --      1.0571                 1.0596                 1.0588
 Frc consts  --      1.4732                 1.4777                 1.4769
 IR Inten    --      5.9097                 4.2191                 6.3326

                     88                     89                     90
                      A                      A                      A
 Frequencies --   3016.4400              3021.6549              3024.7922
 Red. masses --      1.0656                 1.0593                 1.0606
 Frc consts  --      5.7127                 5.6985                 5.7174
 IR Inten    --     30.6200                13.3124                30.7131

                     91                     92                     93
                      A                      A                      A
 Frequencies --   3026.2402              3029.0457              3032.3028
 Red. masses --      1.0622                 1.0624                 1.0615
 Frc consts  --      5.7312                 5.7431                 5.7506
 IR Inten    --     26.1946                 4.1465                47.6801

                     94                     95                     96
                      A                      A                      A
 Frequencies --   3034.1111              3037.3201              3039.1282
 Red. masses --      1.0622                 1.0654                 1.0579
 Frc consts  --      5.7613                 5.7907                 5.7569
 IR Inten    --      4.7159                11.7485                28.4862

                     97                     98                     99
                      A                      A                      A
 Frequencies --   3042.4485              3043.6136              3044.0397
 Red. masses --      1.0440                 1.0387                 1.0379
 Frc consts  --      5.6938                 5.6694                 5.6665
 IR Inten    --     24.6876                25.6574                22.5401

                    100                    101                    102
                      A                      A                      A
 Frequencies --   3057.7934              3059.4901              3060.6332
 Red. masses --      1.0966                 1.0959                 1.0997
 Frc consts  --      6.0413                 6.0441                 6.0692
 IR Inten    --      6.5613                32.5356                36.1071

                    103                    104                    105
                      A                      A                      A
 Frequencies --   3063.7551              3065.5741              3075.1724
 Red. masses --      1.0968                 1.0987                 1.0995
 Frc consts  --      6.0656                 6.0837                 6.1262
 IR Inten    --     27.0352                 3.7924                11.7140

                    106                    107                    108
                      A                      A                      A
 Frequencies --   3080.4994              3084.7884              3086.8444
 Red. masses --      1.1019                 1.1028                 1.1024
 Frc consts  --      6.1606                 6.1831                 6.1892
 IR Inten    --     51.9807                51.3681                56.0079

                    109                    110                    111
                      A                      A                      A
 Frequencies --   3106.5517              3107.1713              3108.1660
 Red. masses --      1.1012                 1.1013                 1.1018
 Frc consts  --      6.2614                 6.2644                 6.2711
 IR Inten    --     42.1709                56.0997                45.8871

                    112                    113                    114
                      A                      A                      A
 Frequencies --   3112.2457              3114.2172              3115.8838
 Red. masses --      1.1017                 1.1017                 1.1017
 Frc consts  --      6.2874                 6.2955                 6.3019
 IR Inten    --     56.3329                58.9092                46.6507

 - Thermochemistry -
 -------------------
 Temperature   298.150 Kelvin.  Pressure   1.00000 Atm.
 Atom     1 has atomic number  6 and mass  12.00000

 Molecular mass:   202.18504 amu.
 Principal axes and moments of inertia in atomic units:
                           1         2         3
     Eigenvalues --  3586.697834398.928577427.18719
           X            0.99982  -0.01921   0.00012
           Y            0.01921   0.99981   0.00125
           Z           -0.00014  -0.00125   1.00000
 This molecule is an asymmetric top.
 Rotational symmetry number  1.
 Warning -- assumption of classical behavior for rotation
           may cause significant error
 Rotational temperatures (Kelvin)      0.02415     0.01969     0.01166
 Rotational constants (GHZ):           0.50318     0.41027     0.24299
 Zero-point vibrational energy     977223.6 (Joules/Mol)
                                  233.56204 (Kcal/Mol)
 Warning -- explicit consideration of  25 degrees of freedom as
           vibrations may cause significant error
 Vibrational temperatures:     12.11    43.49    48.11    68.95    79.27
          (Kelvin)             96.07   128.63   170.46   182.00   207.56
                              249.89   259.83   303.68   332.64   342.15
                              358.64   410.47   411.27   467.39   491.44
                              553.45   614.35   628.00   678.25   892.15
                              985.37  1012.09  1045.71  1075.39  1099.53
                             1131.33  1139.16  1148.87  1245.47  1265.05
                             1276.14  1293.14  1331.78  1344.37  1413.41
                             1416.23  1423.11  1515.94  1541.51  1548.52
                             1561.17  1562.37  1581.64  1600.36  1613.61
                             1620.54  1732.35  1765.07  1776.21  1796.95
                             1813.31  1823.43  1892.09  1899.00  1901.81
                             1923.60  1927.81  1933.54  2002.19  2004.30
                             2007.29  2011.78  2013.58  2019.76  2073.88
                             2075.67  2075.79  2138.80  2145.20  2153.76
                             2181.63  2182.29  2182.95  2185.92  2187.15
                             2188.75  2204.74  2204.94  2205.83  2212.84
                             2213.58  2213.77  4339.98  4347.49  4352.00
                             4354.08  4358.12  4362.81  4365.41  4370.03
                             4372.63  4377.40  4379.08  4379.69  4399.48
                             4401.92  4403.57  4408.06  4410.68  4424.49
                             4432.15  4438.32  4441.28  4469.64  4470.53
                             4471.96  4477.83  4480.66  4483.06

 Zero-point correction=                           0.372205 (Hartree/Particle)
 Thermal correction to Energy=                    0.390840
 Thermal correction to Enthalpy=                  0.391784
 Thermal correction to Gibbs Free Energy=         0.321929
 Sum of electronic and zero-point Energies=           -814.535775
 Sum of electronic and thermal Energies=              -814.517140
 Sum of electronic and thermal Enthalpies=            -814.516196
 Sum of electronic and thermal Free Energies=         -814.586050

                     E (Thermal)             CV                S
                      KCal/Mol        Cal/Mol-Kelvin    Cal/Mol-Kelvin
 Total                  245.256             66.242            147.021
 Electronic               0.000              0.000              0.000
 Translational            0.889              2.981             41.817
 Rotational               0.889              2.981             33.127
 Vibrational            243.478             60.281             72.078
 Vibration     1          0.593              1.987              8.353
 Vibration     2          0.594              1.984              5.814
 Vibration     3          0.594              1.983              5.614
 Vibration     4          0.595              1.978              4.901
 Vibration     5          0.596              1.976              4.626
 Vibration     6          0.598              1.970              4.246
 Vibration     7          0.602              1.957              3.673
 Vibration     8          0.609              1.934              3.125
 Vibration     9          0.611              1.927              2.999
 Vibration    10          0.616              1.909              2.747
 Vibration    11          0.627              1.875              2.395
 Vibration    12          0.630              1.866              2.322
 Vibration    13          0.643              1.824              2.034
 Vibration    14          0.653              1.793              1.870
 Vibration    15          0.656              1.783              1.819
 Vibration    16          0.662              1.764              1.736
 Vibration    17          0.683              1.701              1.502
 Vibration    18          0.684              1.700              1.498
 Vibration    19          0.709              1.626              1.286
 Vibration    20          0.721              1.592              1.205
 Vibration    21          0.754              1.503              1.021
 Vibration    22          0.789              1.411              0.869
 Vibration    23          0.797              1.391              0.838
 Vibration    24          0.828              1.313              0.734
 Vibration    25          0.980              0.990              0.416

 Optimization completed.
    -- Stationary point found.
 Normal termination of Gaussian 16 at Sun Aug 23 09:52:23 2020.
 Gaussian 16:  ES64L-G16RevA.03 25-Dec-2016

 ----------------------------------------------------------------------
 # TD(NStates=10, Root=1) B3LYP/6-31G* scf=qc volume pop=NPA density=cu
 rrent Geom=AllCheck Guess=Read
 ----------------------------------------------------------------------

 Structure from the checkpoint file:  "phosphine_2_conf283.chk"
 -------------------
 Title Card Required
 -------------------
 Charge =  0 Multiplicity = 1

                         Standard orientation:
 ---------------------------------------------------------------------
 Center     Atomic      Atomic             Coordinates (Angstroms)
 Number     Number       Type             X           Y           Z
 ---------------------------------------------------------------------
      1          6           0        4.399693   -1.938896   -0.340734
      2          6           0        3.996733   -0.734525    0.518195
      3          6           0        2.791509    0.058765   -0.018779
      4          6           0        1.467502   -0.723456   -0.006683
      5          1           0        1.565175   -1.624873   -0.626250
      6          1           0        1.245927   -1.063705    1.014572
      7         15           0        0.019580    0.236641   -0.727378
      8          6           0       -1.301126   -1.103162   -0.772137
      9          1           0       -2.208887   -0.600283   -1.130379
     10          1           0       -1.006395   -1.788347   -1.579952
     11          6           0       -1.603048   -1.908530    0.501705
     12          6           0       -2.682174   -2.991988    0.314558
     13          6           0       -4.086453   -2.449400    0.024418
     14          6           0       -0.565106    1.237560    0.761563
     15          1           0       -1.658551    1.300393    0.687458
     16          1           0       -0.352382    0.687828    1.687823
     17          6           0        0.025593    2.658905    0.860652
     18          6           0       -0.378560    3.626496   -0.265124
     19          6           0       -1.871835    3.973232   -0.295291
     20          1           0        5.293585   -2.427891    0.063149
     21          1           0        4.624741   -1.631290   -1.369679
     22          1           0        3.606855   -2.694044   -0.386516
     23          1           0        4.853773   -0.051766    0.596403
     24          1           0        3.781667   -1.070548    1.542833
     25          1           0        3.004890    0.396494   -1.042476
     26          1           0        2.681378    0.969301    0.584823
     27          1           0       -1.917415   -1.229827    1.306380
     28          1           0       -0.683066   -2.393773    0.851232
     29          1           0       -2.719883   -3.605228    1.225418
     30          1           0       -2.376386   -3.669702   -0.495459
     31          1           0       -4.419558   -1.772101    0.821098
     32          1           0       -4.816086   -3.264312   -0.044532
     33          1           0       -4.125473   -1.895140   -0.920028
     34          1           0        1.121248    2.597434    0.895844
     35          1           0       -0.280784    3.091936    1.824733
     36          1           0       -0.080633    3.203552   -1.232772
     37          1           0        0.197945    4.553445   -0.142772
     38          1           0       -2.493802    3.095278   -0.504540
     39          1           0       -2.086041    4.714646   -1.073550
     40          1           0       -2.201914    4.392906    0.663747
 ---------------------------------------------------------------------

 SCF Done:  E(RB3LYP) =  -814.907979613     a.u. after    1 cycles

 Excitation energies and oscillator strengths:

 Excited State   1:      Singlet-A      6.4113 eV  193.38 nm  f=0.1078  <S**2>=0.000
      57 -> 58         0.69677
 This state for optimization and/or second-order correction.
 Total Energy, E(TD-HF/TD-DFT) =  -814.672367475
 Copying the excited state density for this state as the 1-particle RhoCI density.

 Excited State   2:      Singlet-A      6.7264 eV  184.33 nm  f=0.1461  <S**2>=0.000
      57 -> 59         0.69471

 Excited State   3:      Singlet-A      7.0143 eV  176.76 nm  f=0.0021  <S**2>=0.000
      57 -> 60         0.69974

 Excited State   4:      Singlet-A      7.5798 eV  163.57 nm  f=0.0058  <S**2>=0.000
      57 -> 61         0.67229
      57 -> 63        -0.16830

 Excited State   5:      Singlet-A      7.7130 eV  160.75 nm  f=0.0324  <S**2>=0.000
      57 -> 61         0.11909
      57 -> 62         0.65487
      57 -> 63         0.18286

 Excited State   6:      Singlet-A      7.8684 eV  157.57 nm  f=0.0032  <S**2>=0.000
      57 -> 62        -0.20476
      57 -> 63         0.58236
      57 -> 64         0.30567

 Excited State   7:      Singlet-A      7.9198 eV  156.55 nm  f=0.0054  <S**2>=0.000
      57 -> 61        -0.10255
      57 -> 63        -0.28094
      57 -> 64         0.60394
      57 -> 65         0.15500

 Excited State   8:      Singlet-A      8.2610 eV  150.08 nm  f=0.0272  <S**2>=0.000
      55 -> 58         0.10681
      57 -> 64        -0.13154
      57 -> 65         0.67449

 Excited State   9:      Singlet-A      8.3021 eV  149.34 nm  f=0.0034  <S**2>=0.000
      55 -> 58         0.51451
      55 -> 59         0.11356
      56 -> 58        -0.32373
      56 -> 59         0.29072

 Excited State  10:      Singlet-A      8.4902 eV  146.03 nm  f=0.0356  <S**2>=0.000
      55 -> 58         0.22139
      55 -> 59         0.24869
      56 -> 58         0.53909
      56 -> 59         0.11240
      57 -> 66         0.16762
      57 -> 67        -0.16418

 The electronic state is 1-A.
 Alpha  occ. eigenvalues --  -77.06319 -10.18099 -10.18055 -10.18018 -10.17948
 Alpha  occ. eigenvalues --  -10.17936 -10.17916 -10.17880 -10.17868 -10.17264
 Alpha  occ. eigenvalues --  -10.17242 -10.17136 -10.16838  -6.53088  -4.69344
 Alpha  occ. eigenvalues --   -4.69338  -4.68837  -0.79904  -0.78895  -0.78573
 Alpha  occ. eigenvalues --   -0.73936  -0.71256  -0.71081  -0.65858  -0.63449
 Alpha  occ. eigenvalues --   -0.63258  -0.57580  -0.56833  -0.56155  -0.51363
 Alpha  occ. eigenvalues --   -0.46265  -0.45923  -0.45297  -0.44522  -0.43948
 Alpha  occ. eigenvalues --   -0.43433  -0.42093  -0.40988  -0.39608  -0.39145
 Alpha  occ. eigenvalues --   -0.38746  -0.38093  -0.37707  -0.36498  -0.36139
 Alpha  occ. eigenvalues --   -0.35200  -0.34079  -0.33232  -0.32949  -0.32739
 Alpha  occ. eigenvalues --   -0.32545  -0.32198  -0.31736  -0.31522  -0.28911
 Alpha  occ. eigenvalues --   -0.28689  -0.21056
 Alpha virt. eigenvalues --    0.05556   0.06342   0.07848   0.09715   0.10454
 Alpha virt. eigenvalues --    0.10789   0.11105   0.12298   0.13150   0.13728
 Alpha virt. eigenvalues --    0.14205   0.14466   0.14747   0.15028   0.15602

 Mulliken charges:
               1
     1  C   -0.428639
     2  C   -0.255401
     3  C   -0.213473
     4  C   -0.413425
     5  H    0.137706
     6  H    0.170146
     7  P    0.311206
     8  C   -0.425011
     9  H    0.152073
    10  H    0.146603
    11  C   -0.261502
    12  C   -0.244297
    13  C   -0.440417
    14  C   -0.415893
    15  H    0.147111
    16  H    0.183006
    17  C   -0.227124
    18  C   -0.249388
    19  C   -0.444320
    20  H    0.129608
    21  H    0.135674
    22  H    0.128271
    23  H    0.127281
    24  H    0.119714
    25  H    0.122779
    26  H    0.114651
    27  H    0.137124
    28  H    0.140263
    29  H    0.130450
    30  H    0.133702
    31  H    0.140131
    32  H    0.144178
    33  H    0.142802
    34  H    0.115621
    35  H    0.108367
    36  H    0.142885
    37  H    0.134647
    38  H    0.142963
    39  H    0.139198
    40  H    0.140729
 Sum of Mulliken charges =   0.00000

 Dipole moment (field-independent basis, Debye):
    X=             -1.2098    Y=             -0.8252    Z=              0.6641  Tot=              1.6080
 Quadrupole moment (field-independent basis, Debye-Ang):
   XX=            -99.4643   YY=            -96.2466   ZZ=            -94.3967
   XY=              1.1432   XZ=             -0.3061   YZ=              0.0183

 Summary of Natural Population Analysis:

                                       Natural Population
                Natural  -----------------------------------------------
    Atom  No    Charge         Core      Valence    Rydberg      Total
 -----------------------------------------------------------------------
      C    1   -0.67656      1.99946     4.66940    0.00770     6.67656
      C    2   -0.45753      1.99934     4.44666    0.01153     6.45753
      C    3   -0.46332      1.99932     4.44760    0.01641     6.46332
      C    4   -0.79981      1.99930     4.77868    0.02183     6.79981
      H    5    0.22546      0.00000     0.76753    0.00701     0.77454
      H    6    0.25623      0.00000     0.74158    0.00219     0.74377
      P    7    1.00986      9.99769     3.88346    0.10899    13.99014
      C    8   -0.86439      1.99933     4.84145    0.02361     6.86439
      H    9    0.24663      0.00000     0.75056    0.00281     0.75337
      H   10    0.24437      0.00000     0.75332    0.00231     0.75563
      C   11   -0.45240      1.99930     4.44093    0.01217     6.45240
      C   12   -0.45088      1.99934     4.44016    0.01137     6.45088
      C   13   -0.67927      1.99946     4.67214    0.00767     6.67927
      C   14   -0.75719      1.99930     4.73917    0.01872     6.75719
      H   15    0.22568      0.00000     0.76683    0.00749     0.77432
      H   16    0.26944      0.00000     0.72873    0.00183     0.73056
      C   17   -0.46004      1.99931     4.44528    0.01545     6.46004
      C   18   -0.45667      1.99935     4.44510    0.01223     6.45667
      C   19   -0.67903      1.99946     4.67087    0.00870     6.67903
      H   20    0.22236      0.00000     0.77473    0.00291     0.77764
      H   21    0.22117      0.00000     0.77689    0.00193     0.77883
      H   22    0.21413      0.00000     0.78106    0.00481     0.78587
      H   23    0.22969      0.00000     0.76749    0.00282     0.77031
      H   24    0.21967      0.00000     0.77769    0.00264     0.78033
      H   25    0.22419      0.00000     0.77110    0.00471     0.77581
      H   26    0.21441      0.00000     0.77366    0.01193     0.78559
      H   27    0.22622      0.00000     0.77185    0.00193     0.77378
      H   28    0.23326      0.00000     0.76501    0.00173     0.76674
      H   29    0.23166      0.00000     0.76536    0.00298     0.76834
      H   30    0.22854      0.00000     0.76946    0.00201     0.77146
      H   31    0.22307      0.00000     0.77562    0.00132     0.77693
      H   32    0.23387      0.00000     0.76506    0.00107     0.76613
      H   33    0.22224      0.00000     0.77532    0.00244     0.77776
      H   34    0.21679      0.00000     0.76881    0.01440     0.78321
      H   35    0.21957      0.00000     0.77381    0.00662     0.78043
      H   36    0.22813      0.00000     0.76943    0.00243     0.77187
      H   37    0.23595      0.00000     0.76272    0.00133     0.76405
      H   38    0.22103      0.00000     0.77792    0.00105     0.77897
      H   39    0.22919      0.00000     0.76923    0.00158     0.77081
      H   40    0.22426      0.00000     0.77443    0.00131     0.77574
 =======================================================================
   * Total *    0.00000     33.98996    79.63610    0.37394   114.00000

 Normal termination of Gaussian 16 at Sun Aug 23 10:01:24 2020.
