 Gaussian 16, Revision A.03,

 ---------------------------------
 # opt=CalcAll B3LYP/6-31G* scf=qc
 ---------------------------------

 -------------------
 Title Card Required
 -------------------
 Symbolic Z-matrix:
 Charge =  0 Multiplicity = 1

 SCF Done:  E(RB3LYP) =  -1036.26848395     a.u. after    8 cycles
 SCF Done:  E(RB3LYP) =  -1036.27915147     a.u. after   15 cycles
 SCF Done:  E(RB3LYP) =  -1036.28181843     a.u. after   17 cycles
 SCF Done:  E(RB3LYP) =  -1036.29489340     a.u. after   17 cycles
 SCF Done:  E(RB3LYP) =  -1036.29792394     a.u. after   17 cycles
 SCF Done:  E(RB3LYP) =  -1036.29822283     a.u. after   15 cycles
 SCF Done:  E(RB3LYP) =  -1036.29823557     a.u. after    9 cycles
 SCF Done:  E(RB3LYP) =  -1036.29823433     a.u. after    4 cycles
 SCF Done:  E(RB3LYP) =  -1036.29823811     a.u. after    2 cycles
 SCF Done:  E(RB3LYP) =  -1036.29823012     a.u. after    2 cycles
 SCF Done:  E(RB3LYP) =  -1036.29822973     a.u. after    2 cycles
 SCF Done:  E(RB3LYP) =  -1036.29823551     a.u. after    2 cycles
 SCF Done:  E(RB3LYP) =  -1036.29822910     a.u. after    2 cycles
 SCF Done:  E(RB3LYP) =  -1036.29823406     a.u. after    4 cycles
 SCF Done:  E(RB3LYP) =  -1036.29823691     a.u. after    5 cycles
 SCF Done:  E(RB3LYP) =  -1036.29823234     a.u. after    3 cycles
 SCF Done:  E(RB3LYP) =  -1036.29823442     a.u. after    3 cycles
 SCF Done:  E(RB3LYP) =  -1036.29823073     a.u. after    2 cycles
 Optimization completed.
    -- Stationary point found.
 Normal termination of Gaussian 16 at Sun Aug 23 06:15:17 2020.

 ----------------------------------------------------------------------
 # freq B3LYP/6-31G* scf=qc volume NMR pop=NPA density=current Geom=All
 Check Guess=Read
 ----------------------------------------------------------------------

 Structure from the checkpoint file:  "phosphine_1_conf132.chk"
 -------------------
 Title Card Required
 -------------------
 Charge =  0 Multiplicity = 1

 SCF Done:  E(RB3LYP) =  -1036.29823073     a.u. after    1 cycles

      1  C    Isotropic =    68.1739   Anisotropy =   167.3336

      2  C    Isotropic =    68.7304   Anisotropy =   164.1529

      3  C    Isotropic =    61.0224   Anisotropy =   164.1220

      4  C    Isotropic =    56.1025   Anisotropy =   179.4177

      5  C    Isotropic =    62.5919   Anisotropy =   173.9977

      6  C    Isotropic =    68.6743   Anisotropy =   163.8784

      7  P    Isotropic =   361.5134   Anisotropy =    39.8668

      8  C    Isotropic =    56.1168   Anisotropy =   179.4273

      9  C    Isotropic =    62.5628   Anisotropy =   174.0409

     10  C    Isotropic =    68.6716   Anisotropy =   163.8801

     11  C    Isotropic =    68.1665   Anisotropy =   167.3511

     12  C    Isotropic =    68.7354   Anisotropy =   164.1458

     13  C    Isotropic =    61.0031   Anisotropy =   164.0913

     14  C    Isotropic =    56.1428   Anisotropy =   179.4184

     15  C    Isotropic =    61.0176   Anisotropy =   164.1239

     16  C    Isotropic =    68.7343   Anisotropy =   164.1256

     17  C    Isotropic =    68.1603   Anisotropy =   167.3202

     18  C    Isotropic =    68.6783   Anisotropy =   163.8921

     19  C    Isotropic =    62.5881   Anisotropy =   174.0640

     20  H    Isotropic =    25.0192   Anisotropy =     3.6452

     21  H    Isotropic =    24.9253   Anisotropy =     4.5925

     22  H    Isotropic =    24.6145   Anisotropy =     9.2544

     23  H    Isotropic =    25.4056   Anisotropy =    12.2261

     24  H    Isotropic =    25.0493   Anisotropy =     6.0859

     25  H    Isotropic =    25.4005   Anisotropy =    12.2221

     26  H    Isotropic =    25.0480   Anisotropy =     6.0864

     27  H    Isotropic =    25.0186   Anisotropy =     3.6441

     28  H    Isotropic =    24.9264   Anisotropy =     4.5881

     29  H    Isotropic =    24.6130   Anisotropy =     9.2463

     30  H    Isotropic =    24.6125   Anisotropy =     9.2501

     31  H    Isotropic =    24.9276   Anisotropy =     4.5869

     32  H    Isotropic =    25.0211   Anisotropy =     3.6414

     33  H    Isotropic =    25.0478   Anisotropy =     6.0855

     34  H    Isotropic =    25.4013   Anisotropy =    12.2260

  Exact polarizability: 224.191  -0.036 224.075   0.036  -0.034 165.049
 Approx polarizability: 331.003  -0.082 330.782   0.084  -0.085 308.047

                      1                      2                      3
                      A                      A                      A
 Frequencies --     22.5742                23.3461                38.2378
 Red. masses --      3.7975                 3.7983                 3.6890
 Frc consts  --      0.0011                 0.0012                 0.0032
 IR Inten    --      0.2821                 0.2829                 0.0014

                      4                      5                      6
                      A                      A                      A
 Frequencies --     53.3095                53.4174                70.5732
 Red. masses --      5.2506                 5.2519                 5.1679
 Frc consts  --      0.0088                 0.0088                 0.0152
 IR Inten    --      0.0858                 0.0838                 0.3095

                      7                      8                      9
                      A                      A                      A
 Frequencies --    181.4152               202.4367               202.6161
 Red. masses --      4.5607                 4.6432                 4.6426
 Frc consts  --      0.0884                 0.1121                 0.1123
 IR Inten    --      0.3533                 1.1361                 1.1399

                     10                     11                     12
                      A                      A                      A
 Frequencies --    245.5320               259.7234               259.9323
 Red. masses --      5.7385                 4.7205                 4.7213
 Frc consts  --      0.2038                 0.1876                 0.1879
 IR Inten    --      0.4828                 0.2261                 0.2236

                     13                     14                     15
                      A                      A                      A
 Frequencies --    408.7980               408.8632               412.3558
 Red. masses --      3.0796                 3.0793                 3.5993
 Frc consts  --      0.3032                 0.3033                 0.3606
 IR Inten    --      1.9690                 1.9660                 0.1615

                     16                     17                     18
                      A                      A                      A
 Frequencies --    417.0635               429.3677               429.4925
 Red. masses --      4.6060                 7.3065                 7.3090
 Frc consts  --      0.4720                 0.7936                 0.7944
 IR Inten    --      0.5607                 7.6920                 7.7059

                     19                     20                     21
                      A                      A                      A
 Frequencies --    509.3692               509.5027               516.3190
 Red. masses --      4.2482                 4.2440                 4.5884
 Frc consts  --      0.6494                 0.6491                 0.7207
 IR Inten    --     26.1185                26.0816                11.9767

                     22                     23                     24
                      A                      A                      A
 Frequencies --    632.7153               632.7414               633.3588
 Red. masses --      6.4271                 6.4271                 6.4369
 Frc consts  --      1.5159                 1.5161                 1.5213
 IR Inten    --      0.1807                 0.1799                 0.0162

                     25                     26                     27
                      A                      A                      A
 Frequencies --    691.8432               705.1041               705.1947
 Red. masses --      6.5813                 5.7391                 5.7376
 Frc consts  --      1.8560                 1.6811                 1.6811
 IR Inten    --      0.7710                 1.1835                 1.1481

                     28                     29                     30
                      A                      A                      A
 Frequencies --    712.2165               712.2980               713.2615
 Red. masses --      2.1966                 2.2000                 2.1337
 Frc consts  --      0.6565                 0.6577                 0.6396
 IR Inten    --     26.3715                26.3543                16.6067

                     31                     32                     33
                      A                      A                      A
 Frequencies --    761.4041               762.8770               762.9325
 Red. masses --      1.6156                 1.6484                 1.6479
 Frc consts  --      0.5518                 0.5652                 0.5652
 IR Inten    --     19.2018                24.9742                24.8872

                     34                     35                     36
                      A                      A                      A
 Frequencies --    866.1277               866.2400               868.7414
 Red. masses --      1.2478                 1.2477                 1.2462
 Frc consts  --      0.5515                 0.5516                 0.5542
 IR Inten    --      0.2261                 0.2216                 0.1335

                     37                     38                     39
                      A                      A                      A
 Frequencies --    932.8408               933.0341               934.1992
 Red. masses --      1.3444                 1.3441                 1.3386
 Frc consts  --      0.6893                 0.6894                 0.6883
 IR Inten    --      1.2576                 1.2749                 0.0344

                     40                     41                     42
                      A                      A                      A
 Frequencies --    975.7455               975.8646               977.6258
 Red. masses --      1.3614                 1.3612                 1.3556
 Frc consts  --      0.7637                 0.7637                 0.7634
 IR Inten    --      0.0158                 0.0164                 0.1420

                     43                     44                     45
                      A                      A                      A
 Frequencies --   1000.3298              1000.4187              1001.0947
 Red. masses --      1.2544                 1.2542                 1.2526
 Frc consts  --      0.7395                 0.7396                 0.7396
 IR Inten    --      0.0783                 0.0825                 0.0006

                     46                     47                     48
                      A                      A                      A
 Frequencies --   1015.3480              1015.3770              1015.7556
 Red. masses --      6.3110                 6.3106                 6.3099
 Frc consts  --      3.8334                 3.8333                 3.8357
 IR Inten    --      4.3658                 4.3550                 0.0581

                     49                     50                     51
                      A                      A                      A
 Frequencies --   1052.7037              1052.7408              1052.9354
 Red. masses --      3.3139                 3.3157                 3.2534
 Frc consts  --      2.1637                 2.1651                 2.1251
 IR Inten    --      2.0785                 2.0852                 0.0506

                     52                     53                     54
                      A                      A                      A
 Frequencies --   1107.8740              1108.0424              1109.4570
 Red. masses --      1.8843                 1.8739                 1.6545
 Frc consts  --      1.3626                 1.3555                 1.1998
 IR Inten    --      4.2584                 4.0849                 2.8965

                     55                     56                     57
                      A                      A                      A
 Frequencies --   1110.7142              1110.8129              1116.0335
 Red. masses --      2.1916                 2.2003                 2.6131
 Frc consts  --      1.5930                 1.5996                 1.9176
 IR Inten    --      9.4395                 9.4754                 1.2108

                     58                     59                     60
                      A                      A                      A
 Frequencies --   1193.4919              1193.9141              1193.9312
 Red. masses --      1.1034                 1.1000                 1.1000
 Frc consts  --      0.9260                 0.9239                 0.9239
 IR Inten    --      0.0011                 0.1295                 0.1296

                     61                     62                     63
                      A                      A                      A
 Frequencies --   1219.2560              1219.3802              1220.8107
 Red. masses --      1.1476                 1.1477                 1.1473
 Frc consts  --      1.0051                 1.0054                 1.0075
 IR Inten    --      6.0316                 6.0732                 0.3405

                     64                     65                     66
                      A                      A                      A
 Frequencies --   1324.9672              1328.6599              1328.8062
 Red. masses --      3.4867                 3.4838                 3.4985
 Frc consts  --      3.6064                 3.6236                 3.6396
 IR Inten    --      2.6406                 2.4313                 2.4504

                     67                     68                     69
                      A                      A                      A
 Frequencies --   1365.1802              1365.2897              1365.5820
 Red. masses --      1.6574                 1.6532                 1.6459
 Frc consts  --      1.8199                 1.8156                 1.8083
 IR Inten    --      0.2659                 0.1434                 2.9753

                     70                     71                     72
                      A                      A                      A
 Frequencies --   1480.4910              1480.9396              1481.0079
 Red. masses --      2.1105                 2.1152                 2.1158
 Frc consts  --      2.7255                 2.7332                 2.7342
 IR Inten    --     16.6404                 6.6126                 6.5942

                     73                     74                     75
                      A                      A                      A
 Frequencies --   1531.0978              1531.5889              1531.6367
 Red. masses --      2.0153                 1.9985                 1.9982
 Frc consts  --      2.7835                 2.7621                 2.7618
 IR Inten    --      2.0258                10.1256                10.1526

                     76                     77                     78
                      A                      A                      A
 Frequencies --   1630.1644              1630.4322              1630.4765
 Red. masses --      5.1005                 5.1119                 5.1126
 Frc consts  --      7.9859                 8.0065                 8.0080
 IR Inten    --      0.3974                 0.0461                 0.0451

                     79                     80                     81
                      A                      A                      A
 Frequencies --   1646.1580              1646.1849              1647.9719
 Red. masses --      5.2714                 5.2704                 5.2825
 Frc consts  --      8.4163                 8.4149                 8.4526
 IR Inten    --      3.5007                 3.5257                 0.3191

                     82                     83                     84
                      A                      A                      A
 Frequencies --   3176.0653              3176.1041              3176.1174
 Red. masses --      1.0854                 1.0854                 1.0853
 Frc consts  --      6.4506                 6.4508                 6.4507
 IR Inten    --      2.1531                 2.0786                 1.8019

                     85                     86                     87
                      A                      A                      A
 Frequencies --   3182.6041              3182.6455              3182.7280
 Red. masses --      1.0875                 1.0875                 1.0876
 Frc consts  --      6.4900                 6.4902                 6.4909
 IR Inten    --      0.7536                 0.6716                 0.2555

                     88                     89                     90
                      A                      A                      A
 Frequencies --   3192.8005              3192.8424              3192.9648
 Red. masses --      1.0916                 1.0916                 1.0917
 Frc consts  --      6.5564                 6.5567                 6.5578
 IR Inten    --     10.8254                11.0832                46.0503

                     91                     92                     93
                      A                      A                      A
 Frequencies --   3203.7984              3203.9173              3204.3014
 Red. masses --      1.0940                 1.0941                 1.0942
 Frc consts  --      6.6163                 6.6171                 6.6195
 IR Inten    --     40.4434                39.5215                 6.8171

                     94                     95                     96
                      A                      A                      A
 Frequencies --   3209.9190              3210.0884              3210.9491
 Red. masses --      1.0958                 1.0957                 1.0956
 Frc consts  --      6.6522                 6.6522                 6.6555
 IR Inten    --     20.8406                19.9779                16.2605

 - Thermochemistry -
 -------------------
 Temperature   298.150 Kelvin.  Pressure   1.00000 Atm.
 Atom     1 has atomic number  6 and mass  12.00000

 Molecular mass:   262.09114 amu.
 Principal axes and moments of inertia in atomic units:
                           1         2         3
     Eigenvalues --  5162.061225164.045538680.86067
           X            0.99983  -0.01862   0.00001
           Y            0.01862   0.99983  -0.00001
           Z           -0.00001   0.00001   1.00000
 This molecule is an asymmetric top.
 Rotational symmetry number  1.
 Warning -- assumption of classical behavior for rotation
           may cause significant error
 Rotational temperatures (Kelvin)      0.01678     0.01677     0.00998
 Rotational constants (GHZ):           0.34962     0.34948     0.20790
 Zero-point vibrational energy     719945.7 (Joules/Mol)
                                  172.07114 (Kcal/Mol)
 Warning -- explicit consideration of  21 degrees of freedom as
           vibrations may cause significant error
 Vibrational temperatures:     32.48    33.59    55.02    76.70    76.86
          (Kelvin)            101.54   261.02   291.26   291.52   353.27
                              373.68   373.98   588.17   588.26   593.29
                              600.06   617.76   617.94   732.87   733.06
                              742.87   910.34   910.37   911.26   995.41
                             1014.49  1014.62  1024.72  1024.84  1026.22
                             1095.49  1097.61  1097.69  1246.16  1246.33
                             1249.93  1342.15  1342.43  1344.10  1403.88
                             1404.05  1406.59  1439.25  1439.38  1440.35
                             1460.86  1460.90  1461.45  1514.61  1514.66
                             1514.94  1593.98  1594.23  1596.26  1598.07
                             1598.21  1605.72  1717.17  1717.78  1717.80
                             1754.24  1754.42  1756.47  1906.33  1911.65
                             1911.86  1964.19  1964.35  1964.77  2130.10
                             2130.74  2130.84  2202.91  2203.61  2203.68
                             2345.44  2345.83  2345.89  2368.45  2368.49
                             2371.06  4569.65  4569.71  4569.72  4579.06
                             4579.12  4579.24  4593.73  4593.79  4593.96
                             4609.55  4609.72  4610.27  4618.36  4618.60
                             4619.84

 Zero-point correction=                           0.274213 (Hartree/Particle)
 Thermal correction to Energy=                    0.290137
 Thermal correction to Enthalpy=                  0.291081
 Thermal correction to Gibbs Free Energy=         0.227719
 Sum of electronic and zero-point Energies=          -1036.024018
 Sum of electronic and thermal Energies=             -1036.008094
 Sum of electronic and thermal Enthalpies=           -1036.007150
 Sum of electronic and thermal Free Energies=        -1036.070512

                     E (Thermal)             CV                S
                      KCal/Mol        Cal/Mol-Kelvin    Cal/Mol-Kelvin
 Total                  182.064             62.539            133.357
 Electronic               0.000              0.000              0.000
 Translational            0.889              2.981             42.590
 Rotational               0.889              2.981             33.803
 Vibrational            180.286             56.577             56.964
 Vibration     1          0.593              1.985              6.394
 Vibration     2          0.593              1.985              6.327
 Vibration     3          0.594              1.982              5.348
 Vibration     4          0.596              1.976              4.691
 Vibration     5          0.596              1.976              4.687
 Vibration     6          0.598              1.968              4.137
 Vibration     7          0.630              1.865              2.314
 Vibration     8          0.639              1.836              2.111
 Vibration     9          0.639              1.836              2.109
 Vibration    10          0.660              1.770              1.762
 Vibration    11          0.668              1.746              1.664
 Vibration    12          0.668              1.746              1.662
 Vibration    13          0.773              1.451              0.931
 Vibration    14          0.773              1.451              0.931
 Vibration    15          0.776              1.443              0.918
 Vibration    16          0.780              1.433              0.902
 Vibration    17          0.791              1.406              0.861
 Vibration    18          0.791              1.406              0.860
 Vibration    19          0.865              1.229              0.635
 Vibration    20          0.865              1.229              0.635
 Vibration    21          0.871              1.214              0.619

                           ! Non-Optimized Parameters !
 Normal termination of Gaussian 16 at Sun Aug 23 06:27:35 2020.
 Gaussian 16:  ES64L-G16RevA.03 25-Dec-2016

 ----------------------------------------------------------------------
 # TD(NStates=10, Root=1) B3LYP/6-31G* scf=qc volume pop=NPA density=cu
 rrent Geom=AllCheck Guess=Read
 ----------------------------------------------------------------------

 Structure from the checkpoint file:  "phosphine_1_conf133.chk"
 -------------------
 Title Card Required
 -------------------
 Charge =  0 Multiplicity = 1

                         Standard orientation:
 ---------------------------------------------------------------------
 Center     Atomic      Atomic             Coordinates (Angstroms)
 Number     Number       Type             X           Y           Z
 ---------------------------------------------------------------------
      1          6           0       -0.857959   -4.193496    0.651394
      2          6           0       -1.507355   -3.757129   -0.505369
      3          6           0       -1.224004   -2.497038   -1.031652
      4          6           0       -0.302142   -1.643050   -0.402694
      5          6           0        0.345511   -2.094624    0.757366
      6          6           0        0.070617   -3.361059    1.278156
      7         15           0        0.000125    0.000210   -1.206439
      8          6           0       -1.271929    1.083289   -0.402372
      9          6           0       -1.983817    0.749465    0.759922
     10          6           0       -2.943394    1.620292    1.280954
     11          6           0       -3.203299    2.838967    0.652168
     12          6           0       -2.503699    3.181907   -0.506775
     13          6           0       -1.553789    2.306900   -1.033244
     14          6           0        1.574334    0.560052   -0.402626
     15          6           0        2.774780    0.190645   -1.032836
     16          6           0        4.007717    0.575413   -0.506592
     17          6           0        4.060921    1.354129    0.651414
     18          6           0        2.875752    1.740126    1.279472
     19          6           0        1.641580    1.344855    0.758704
     20          1           0       -1.069673   -5.179058    1.057763
     21          1           0       -2.226362   -4.401998   -1.004065
     22          1           0       -1.719311   -2.172111   -1.943914
     23          1           0        1.070452   -1.456849    1.254148
     24          1           0        0.583378   -3.696248    2.176312
     25          1           0       -1.791402   -0.195972    1.258132
     26          1           0       -3.487731    1.344829    2.180829
     27          1           0       -3.951203    3.514733    1.058704
     28          1           0       -2.705250    4.125664   -1.007000
     29          1           0       -1.027075    2.572316   -1.947161
     30          1           0        2.740979   -0.399286   -1.946051
     31          1           0        4.925666    0.276717   -1.006265
     32          1           0        5.020271    1.663667    1.057771
     33          1           0        2.909673    2.350343    2.178606
     34          1           0        0.726776    1.652235    1.256430
 ---------------------------------------------------------------------

 SCF Done:  E(RB3LYP) =  -1036.29823073     a.u. after    1 cycles

 Excitation energies and oscillator strengths:

 Excited State   1:      Singlet-A      4.5097 eV  274.93 nm  f=0.1276  <S**2>=0.000
      69 -> 70         0.69712
 This state for optimization and/or second-order correction.
 Total Energy, E(TD-HF/TD-DFT) =  -1036.13250194
 Copying the excited state density for this state as the 1-particle RhoCI density.

 Excited State   2:      Singlet-A      4.5110 eV  274.85 nm  f=0.1282  <S**2>=0.000
      69 -> 71         0.69710

 Excited State   3:      Singlet-A      4.7569 eV  260.64 nm  f=0.0022  <S**2>=0.000
      67 -> 70         0.12189
      68 -> 71         0.12219
      69 -> 72         0.67467

 Excited State   4:      Singlet-A      5.0576 eV  245.14 nm  f=0.0002  <S**2>=0.000
      66 -> 70        -0.16817
      67 -> 71        -0.12944
      68 -> 70        -0.12933
      69 -> 74         0.63001

 Excited State   5:      Singlet-A      5.0581 eV  245.12 nm  f=0.0002  <S**2>=0.000
      66 -> 71        -0.16855
      67 -> 70        -0.12997
      68 -> 71         0.12979
      69 -> 75         0.62966

 Excited State   6:      Singlet-A      5.1508 eV  240.71 nm  f=0.0085  <S**2>=0.000
      69 -> 73         0.67913

 Excited State   7:      Singlet-A      5.4275 eV  228.44 nm  f=0.0147  <S**2>=0.000
      63 -> 72        -0.16611
      64 -> 74         0.14001
      65 -> 75        -0.13867
      67 -> 70         0.42020
      68 -> 71         0.41644
      69 -> 72        -0.16513

 Excited State   8:      Singlet-A      5.5141 eV  224.85 nm  f=0.0005  <S**2>=0.000
      63 -> 74         0.14381
      64 -> 72        -0.21789
      64 -> 74         0.10505
      65 -> 72        -0.18018
      65 -> 75         0.10523
      66 -> 70         0.22624
      67 -> 71         0.26692
      68 -> 70         0.26936
      68 -> 72         0.16352
      69 -> 74         0.28692

 Excited State   9:      Singlet-A      5.5147 eV  224.82 nm  f=0.0004  <S**2>=0.000
      63 -> 75         0.14407
      64 -> 72        -0.18034
      64 -> 75        -0.10512
      65 -> 72         0.21798
      65 -> 74         0.10431
      66 -> 71         0.22548
      67 -> 70         0.26627
      67 -> 72        -0.16387
      68 -> 71        -0.27145
      69 -> 75         0.28748

 Excited State  10:      Singlet-A      5.6181 eV  220.69 nm  f=0.0009  <S**2>=0.000
      67 -> 71        -0.47320
      68 -> 70         0.47825

 The electronic state is 1-A.
 Alpha  occ. eigenvalues --  -77.08113 -10.19447 -10.19447 -10.19446 -10.19147
 Alpha  occ. eigenvalues --  -10.19147 -10.19145 -10.19118 -10.19117 -10.19116
 Alpha  occ. eigenvalues --  -10.19031 -10.19031 -10.19029 -10.19008 -10.19007
 Alpha  occ. eigenvalues --  -10.19006 -10.18962 -10.18962 -10.18960  -6.54843
 Alpha  occ. eigenvalues --   -4.71102  -4.71102  -4.70601  -0.85560  -0.84846
 Alpha  occ. eigenvalues --   -0.84845  -0.76669  -0.74366  -0.74366  -0.74329
 Alpha  occ. eigenvalues --   -0.73821  -0.73821  -0.64436  -0.60336  -0.60307
 Alpha  occ. eigenvalues --   -0.60306  -0.59207  -0.59207  -0.55448  -0.51435
 Alpha  occ. eigenvalues --   -0.51435  -0.49295  -0.45440  -0.45439  -0.44774
 Alpha  occ. eigenvalues --   -0.44344  -0.44344  -0.44067  -0.41946  -0.41868
 Alpha  occ. eigenvalues --   -0.41868  -0.40378  -0.40377  -0.36844  -0.36352
 Alpha  occ. eigenvalues --   -0.36350  -0.35898  -0.34252  -0.34251  -0.34224
 Alpha  occ. eigenvalues --   -0.31884  -0.31883  -0.26777  -0.25449  -0.25446
 Alpha  occ. eigenvalues --   -0.25243  -0.24704  -0.24703  -0.21144
 Alpha virt. eigenvalues --   -0.01881  -0.01878  -0.00830   0.00173   0.00427
 Alpha virt. eigenvalues --    0.00430   0.06881   0.06887   0.09492   0.11038
 Alpha virt. eigenvalues --    0.11039   0.13903   0.14528   0.14529   0.15165

 Mulliken charges:
               1
     1  C   -0.121455
     2  C   -0.120091
     3  C   -0.154244
     4  C   -0.079938
     5  C   -0.150334
     6  C   -0.118734
     7  P    0.450710
     8  C   -0.120391
     9  C   -0.175316
    10  C   -0.116197
    11  C   -0.162865
    12  C   -0.125323
    13  C   -0.163079
    14  C   -0.120899
    15  C   -0.174931
    16  C   -0.117648
    17  C   -0.151840
    18  C   -0.123140
    19  C   -0.159952
    20  H    0.147203
    21  H    0.144047
    22  H    0.150784
    23  H    0.172833
    24  H    0.147623
    25  H    0.123448
    26  H    0.119941
    27  H    0.112110
    28  H    0.117431
    29  H    0.120532
    30  H    0.122785
    31  H    0.123065
    32  H    0.121236
    33  H    0.128110
    34  H    0.154519
 Sum of Mulliken charges =  -0.00000

 Dipole moment (field-independent basis, Debye):
    X=              0.2611    Y=             -3.7453    Z=             -0.1964  Tot=              3.7595
 Quadrupole moment (field-independent basis, Debye-Ang):
   XX=           -119.0792   YY=           -107.9860   ZZ=           -110.6655
   XY=              4.2823   XZ=              0.8668   YZ=             -1.0370

 Summary of Natural Population Analysis:

                                       Natural Population
                Natural  -----------------------------------------------
    Atom  No    Charge         Core      Valence    Rydberg      Total
 -----------------------------------------------------------------------
      C    1   -0.19741      1.99909     4.18459    0.01372     6.19741
      C    2   -0.23714      1.99910     4.22372    0.01432     6.23714
      C    3   -0.19902      1.99902     4.18495    0.01505     6.19902
      C    4   -0.37520      1.99890     4.35175    0.02455     6.37520
      C    5   -0.21004      1.99899     4.19488    0.01617     6.21004
      C    6   -0.22780      1.99909     4.21470    0.01401     6.22780
      P    7    1.24222      9.99750     3.71004    0.05025    13.75778
      C    8   -0.46397      1.99886     4.44047    0.02463     6.46397
      C    9   -0.26499      1.99899     4.24808    0.01793     6.26499
      C   10   -0.22523      1.99909     4.21172    0.01442     6.22523
      C   11   -0.28535      1.99910     4.26990    0.01635     6.28535
      C   12   -0.24887      1.99910     4.23465    0.01512     6.24887
      C   13   -0.22006      1.99901     4.20501    0.01604     6.22006
      C   14   -0.45750      1.99888     4.43229    0.02633     6.45750
      C   15   -0.23524      1.99902     4.22008    0.01614     6.23524
      C   16   -0.23459      1.99910     4.22097    0.01453     6.23459
      C   17   -0.26181      1.99909     4.24696    0.01576     6.26181
      C   18   -0.23705      1.99909     4.22338    0.01459     6.23705
      C   19   -0.22779      1.99899     4.21151    0.01729     6.22779
      H   20    0.24255      0.00000     0.75664    0.00082     0.75745
      H   21    0.24382      0.00000     0.75530    0.00088     0.75618
      H   22    0.24332      0.00000     0.75545    0.00123     0.75668
      H   23    0.25979      0.00000     0.73902    0.00119     0.74021
      H   24    0.24599      0.00000     0.75316    0.00086     0.75401
      H   25    0.23225      0.00000     0.76636    0.00140     0.76775
      H   26    0.23312      0.00000     0.76600    0.00088     0.76688
      H   27    0.22743      0.00000     0.77168    0.00089     0.77257
      H   28    0.23166      0.00000     0.76745    0.00088     0.76834
      H   29    0.22805      0.00000     0.77084    0.00111     0.77195
      H   30    0.22780      0.00000     0.77121    0.00099     0.77220
      H   31    0.23359      0.00000     0.76545    0.00096     0.76641
      H   32    0.23128      0.00000     0.76781    0.00091     0.76872
      H   33    0.23705      0.00000     0.76206    0.00089     0.76295
      H   34    0.24915      0.00000     0.74931    0.00154     0.75085
 =======================================================================
   * Total *   -0.00000     45.98001    91.64740    0.37259   138.00000

 Normal termination of Gaussian 16 at Sun Aug 23 06:40:50 2020.
