 Gaussian 16, Revision A.03,

 ---------------------------------
 # opt=CalcAll B3LYP/6-31G* scf=qc
 ---------------------------------

 -------------------
 Title Card Required
 -------------------
 Symbolic Z-matrix:
 Charge =  0 Multiplicity = 1

 SCF Done:  E(RB3LYP) =  -2415.05748326     a.u. after    8 cycles
 SCF Done:  E(RB3LYP) =  -2415.07670088     a.u. after   19 cycles
 SCF Done:  E(RB3LYP) =  -2415.08291748     a.u. after   17 cycles
 SCF Done:  E(RB3LYP) =  -2415.08516256     a.u. after   15 cycles
 SCF Done:  E(RB3LYP) =  -2415.08584189     a.u. after   15 cycles
 SCF Done:  E(RB3LYP) =  -2415.08578394     a.u. after    9 cycles
 SCF Done:  E(RB3LYP) =  -2415.08621749     a.u. after   15 cycles
 SCF Done:  E(RB3LYP) =  -2415.08623413     a.u. after    5 cycles
 SCF Done:  E(RB3LYP) =  -2415.08623756     a.u. after    9 cycles
 SCF Done:  E(RB3LYP) =  -2415.08624084     a.u. after    5 cycles
 SCF Done:  E(RB3LYP) =  -2415.08624506     a.u. after    2 cycles
 SCF Done:  E(RB3LYP) =  -2415.08624017     a.u. after    2 cycles
 SCF Done:  E(RB3LYP) =  -2415.08624881     a.u. after    2 cycles
 SCF Done:  E(RB3LYP) =  -2415.08624286     a.u. after    2 cycles
 SCF Done:  E(RB3LYP) =  -2415.08624557     a.u. after    2 cycles
 SCF Done:  E(RB3LYP) =  -2415.08624151     a.u. after    2 cycles
 SCF Done:  E(RB3LYP) =  -2415.08624331     a.u. after    2 cycles
 SCF Done:  E(RB3LYP) =  -2415.08624772     a.u. after    2 cycles
 Optimization completed.
    -- Stationary point found.
 Normal termination of Gaussian 16 at Sun Aug 23 07:59:02 2020.

 ----------------------------------------------------------------------
 # freq B3LYP/6-31G* scf=qc volume NMR pop=NPA density=current Geom=All
 Check Guess=Read
 ----------------------------------------------------------------------

 Structure from the checkpoint file:  "phosphine_11_conf82.chk"
 -------------------
 Title Card Required
 -------------------
 Charge =  0 Multiplicity = 1

 SCF Done:  E(RB3LYP) =  -2415.08624772     a.u. after    1 cycles

      1  C    Isotropic =    67.5657   Anisotropy =   140.6187

      2  C    Isotropic =    60.2332   Anisotropy =   160.2875

      3  C    Isotropic =    58.7141   Anisotropy =   177.4014

      4  C    Isotropic =    61.9018   Anisotropy =   168.5465

      5  C    Isotropic =    67.5360   Anisotropy =   140.0948

      6  C    Isotropic =    51.6105   Anisotropy =   109.1322

      7  Cl   Isotropic =   721.0478   Anisotropy =   452.8617

      8  P    Isotropic =   364.8529   Anisotropy =    37.4619

      9  C    Isotropic =    58.7323   Anisotropy =   177.4313

     10  C    Isotropic =    61.8754   Anisotropy =   168.5979

     11  C    Isotropic =    67.5390   Anisotropy =   140.1123

     12  C    Isotropic =    51.5989   Anisotropy =   109.1451

     13  C    Isotropic =    67.5501   Anisotropy =   140.5768

     14  C    Isotropic =    60.2124   Anisotropy =   160.2608

     15  Cl   Isotropic =   720.9796   Anisotropy =   452.8823

     16  C    Isotropic =    58.7673   Anisotropy =   177.4123

     17  C    Isotropic =    60.2172   Anisotropy =   160.2706

     18  C    Isotropic =    67.5587   Anisotropy =   140.5769

     19  C    Isotropic =    51.5954   Anisotropy =   109.1615

     20  C    Isotropic =    67.5382   Anisotropy =   140.1189

     21  C    Isotropic =    61.8864   Anisotropy =   168.6327

     22  Cl   Isotropic =   720.9330   Anisotropy =   452.9632

     23  H    Isotropic =    25.0902   Anisotropy =     6.6377

     24  H    Isotropic =    24.7818   Anisotropy =     8.9729

     25  H    Isotropic =    25.5872   Anisotropy =    12.1146

     26  H    Isotropic =    25.2103   Anisotropy =     8.1405

     27  H    Isotropic =    25.5824   Anisotropy =    12.1095

     28  H    Isotropic =    25.2080   Anisotropy =     8.1417

     29  H    Isotropic =    25.0931   Anisotropy =     6.6330

     30  H    Isotropic =    24.7784   Anisotropy =     8.9674

     31  H    Isotropic =    24.7786   Anisotropy =     8.9643

     32  H    Isotropic =    25.0935   Anisotropy =     6.6310

     33  H    Isotropic =    25.2076   Anisotropy =     8.1432

     34  H    Isotropic =    25.5808   Anisotropy =    12.1086

  Exact polarizability: 280.689   0.059 280.497  -0.008   0.066 185.134
 Approx polarizability: 393.551   0.136 393.254  -0.019   0.154 343.208

                      1                      2                      3
                      A                      A                      A
 Frequencies --     22.4728                24.0727                29.6733
 Red. masses --      4.7937                 5.4969                 8.4709
 Frc consts  --      0.0014                 0.0019                 0.0044
 IR Inten    --      0.2788                 0.2329                 0.1838

                      4                      5                      6
                      A                      A                      A
 Frequencies --     30.2833                38.5423                40.5686
 Red. masses --      6.9489                 8.4858                 4.4537
 Frc consts  --      0.0038                 0.0074                 0.0043
 IR Inten    --      0.2357                 0.1992                 0.0281

                      7                      8                      9
                      A                      A                      A
 Frequencies --    109.4321               117.6642               117.8748
 Red. masses --      8.8654                 8.8367                 8.8308
 Frc consts  --      0.0626                 0.0721                 0.0723
 IR Inten    --      0.0249                 0.3506                 0.3487

                     10                     11                     12
                      A                      A                      A
 Frequencies --    181.0773               187.4822               187.6823
 Red. masses --     10.0383                 8.7926                 8.7952
 Frc consts  --      0.1939                 0.1821                 0.1825
 IR Inten    --      0.3330                 0.5710                 0.5704

                     13                     14                     15
                      A                      A                      A
 Frequencies --    264.0410               293.6898               293.8560
 Red. masses --      8.9788                 8.4132                 8.4173
 Frc consts  --      0.3688                 0.4276                 0.4282
 IR Inten    --      0.2166                 0.9071                 0.9145

                     16                     17                     18
                      A                      A                      A
 Frequencies --    310.9547               328.7328               328.9000
 Red. masses --      6.0409                 5.9837                 5.9795
 Frc consts  --      0.3441                 0.3810                 0.3811
 IR Inten    --      0.0033                 1.8822                 1.8846

                     19                     20                     21
                      A                      A                      A
 Frequencies --    384.0925               384.1106               414.7377
 Red. masses --      8.0304                 8.0187                 3.0453
 Frc consts  --      0.6980                 0.6971                 0.3086
 IR Inten    --     20.9846                21.0064                 0.0495

                     22                     23                     24
                      A                      A                      A
 Frequencies --    414.8927               416.8253               427.0209
 Red. masses --      3.0478                 3.2152                 6.6034
 Frc consts  --      0.3091                 0.3291                 0.7094
 IR Inten    --      0.0504                 0.1653                 2.9363

                     25                     26                     27
                      A                      A                      A
 Frequencies --    499.5532               509.4549               509.5781
 Red. masses --      5.5236                 3.6475                 3.6536
 Frc consts  --      0.8122                 0.5578                 0.5590
 IR Inten    --      6.8232                19.8609                19.8531

                     28                     29                     30
                      A                      A                      A
 Frequencies --    531.7314               548.8801               548.8893
 Red. masses --      4.5720                 7.4338                 7.4142
 Frc consts  --      0.7616                 1.3195                 1.3161
 IR Inten    --      9.8657                 5.4603                 5.4942

                     31                     32                     33
                      A                      A                      A
 Frequencies --    644.3579               644.3886               645.3159
 Red. masses --      7.1601                 7.1601                 7.1685
 Frc consts  --      1.7516                 1.7517                 1.7588
 IR Inten    --      0.0371                 0.0366                 0.0957

                     34                     35                     36
                      A                      A                      A
 Frequencies --    718.2764               718.3874               718.7587
 Red. masses --      4.5896                 4.5954                 4.6102
 Frc consts  --      1.3951                 1.3973                 1.4033
 IR Inten    --      1.6700                 1.6742                 0.2907

                     37                     38                     39
                      A                      A                      A
 Frequencies --    746.1341               751.6330               751.6739
 Red. masses --      7.2606                 7.2728                 7.2741
 Frc consts  --      2.3815                 2.4208                 2.4215
 IR Inten    --     14.6284                54.3704                54.3696

                     40                     41                     42
                      A                      A                      A
 Frequencies --    833.8346               834.2455               834.3527
 Red. masses --      1.4158                 1.4319                 1.4313
 Frc consts  --      0.5800                 0.5872                 0.5870
 IR Inten    --     23.2833                32.8655                32.9434

                     43                     44                     45
                      A                      A                      A
 Frequencies --    845.9616               846.1065               849.1266
 Red. masses --      1.2466                 1.2464                 1.2502
 Frc consts  --      0.5256                 0.5257                 0.5311
 IR Inten    --      0.6439                 0.6172                 0.3241

                     46                     47                     48
                      A                      A                      A
 Frequencies --    969.6312               969.7724               970.1285
 Red. masses --      1.2761                 1.2770                 1.2881
 Frc consts  --      0.7069                 0.7076                 0.7143
 IR Inten    --      0.1511                 0.1434                 0.2078

                     49                     50                     51
                      A                      A                      A
 Frequencies --    973.4443               973.6981               976.9323
 Red. masses --      1.3455                 1.3435                 1.3207
 Frc consts  --      0.7512                 0.7505                 0.7427
 IR Inten    --      0.0106                 0.0126                 0.4169

                     52                     53                     54
                      A                      A                      A
 Frequencies --   1027.9874              1028.0109              1029.6325
 Red. masses --      4.7606                 4.7640                 4.6999
 Frc consts  --      2.9640                 2.9663                 2.9356
 IR Inten    --     62.7236                62.6862                 5.1149

                     55                     56                     57
                      A                      A                      A
 Frequencies --   1097.7489              1097.8047              1101.5220
 Red. masses --      7.9003                 7.9222                 8.0761
 Frc consts  --      5.6092                 5.6253                 5.7735
 IR Inten    --     80.9191                81.5378                13.6758

                     58                     59                     60
                      A                      A                      A
 Frequencies --   1118.2584              1118.3579              1121.2225
 Red. masses --      2.1232                 2.1212                 2.1020
 Frc consts  --      1.5643                 1.5632                 1.5569
 IR Inten    --     33.2002                32.7456                 6.3865

                     61                     62                     63
                      A                      A                      A
 Frequencies --   1139.4186              1139.4408              1139.5588
 Red. masses --      1.4018                 1.4015                 1.4021
 Frc consts  --      1.0723                 1.0721                 1.0728
 IR Inten    --      0.7368                 0.1384                 3.2638

                     64                     65                     66
                      A                      A                      A
 Frequencies --   1219.3007              1219.3814              1220.8605
 Red. masses --      1.1572                 1.1573                 1.1517
 Frc consts  --      1.0136                 1.0138                 1.0114
 IR Inten    --      4.7980                 4.8149                 0.9031

                     67                     68                     69
                      A                      A                      A
 Frequencies --   1318.3342              1322.2468              1322.3537
 Red. masses --      6.9243                 7.6238                 7.6903
 Frc consts  --      7.0905                 7.8532                 7.9230
 IR Inten    --      1.3153                 2.6715                 2.6622

                     70                     71                     72
                      A                      A                      A
 Frequencies --   1337.3983              1337.5017              1337.7372
 Red. masses --      1.3362                 1.3302                 1.3503
 Frc consts  --      1.4082                 1.4020                 1.4237
 IR Inten    --      0.4542                 0.3231                 1.5069

                     73                     74                     75
                      A                      A                      A
 Frequencies --   1429.5616              1430.0062              1430.0649
 Red. masses --      2.6348                 2.6413                 2.6414
 Frc consts  --      3.1726                 3.1824                 3.1827
 IR Inten    --     19.3103                 6.4751                 6.1610

                     76                     77                     78
                      A                      A                      A
 Frequencies --   1527.1414              1527.1712              1527.1951
 Red. masses --      2.0952                 2.0764                 2.0764
 Frc consts  --      2.8789                 2.8533                 2.8534
 IR Inten    --     13.6477                64.1573                64.2202

                     79                     80                     81
                      A                      A                      A
 Frequencies --   1611.0377              1611.2842              1611.3038
 Red. masses --      6.6431                 6.6603                 6.6620
 Frc consts  --     10.1585                10.1880                10.1908
 IR Inten    --      3.8700                 3.8026                 3.8177

                     82                     83                     84
                      A                      A                      A
 Frequencies --   1633.4445              1633.4559              1634.4939
 Red. masses --      5.4272                 5.4264                 5.4926
 Frc consts  --      8.5317                 8.5305                 8.6457
 IR Inten    --     29.7990                29.6598                13.1094

                     85                     86                     87
                      A                      A                      A
 Frequencies --   3188.0875              3188.1237              3188.1278
 Red. masses --      1.0893                 1.0892                 1.0892
 Frc consts  --      6.5232                 6.5225                 6.5226
 IR Inten    --      8.9525                 1.8716                 1.8673

                     88                     89                     90
                      A                      A                      A
 Frequencies --   3205.8034              3205.9333              3206.5042
 Red. masses --      1.0878                 1.0878                 1.0879
 Frc consts  --      6.5869                 6.5874                 6.5900
 IR Inten    --      0.8620                 0.8693                 0.6423

                     91                     92                     93
                      A                      A                      A
 Frequencies --   3222.6296              3222.6411              3222.7764
 Red. masses --      1.0938                 1.0938                 1.0937
 Frc consts  --      6.6925                 6.6927                 6.6928
 IR Inten    --      2.2735                 2.2789                10.0618

                     94                     95                     96
                      A                      A                      A
 Frequencies --   3223.7034              3223.7255              3223.9639
 Red. masses --      1.0939                 1.0939                 1.0941
 Frc consts  --      6.6979                 6.6980                 6.7003
 IR Inten    --      5.6933                 5.6527                 0.0265

 - Thermochemistry -
 -------------------
 Temperature   298.150 Kelvin.  Pressure   1.00000 Atm.
 Atom     1 has atomic number  6 and mass  12.00000

 Molecular mass:   363.97422 amu.
 Principal axes and moments of inertia in atomic units:
                           1         2         3
     Eigenvalues --  ******************************
           X            0.99992   0.01272   0.00000
           Y           -0.01272   0.99992   0.00001
           Z           -0.00000  -0.00001   1.00000
 This molecule is an asymmetric top.
 Rotational symmetry number  1.
 Warning -- assumption of classical behavior for rotation
           may cause significant error
 Rotational temperatures (Kelvin)      0.00723     0.00723     0.00405
 Rotational constants (GHZ):           0.15067     0.15056     0.08440
 Zero-point vibrational energy     643801.4 (Joules/Mol)
                                  153.87222 (Kcal/Mol)
 Warning -- explicit consideration of  30 degrees of freedom as
           vibrations may cause significant error
 Vibrational temperatures:     32.33    34.64    42.69    43.57    55.45
          (Kelvin)             58.37   157.45   169.29   169.60   260.53
                              269.75   270.03   379.90   422.55   422.79
                              447.39   472.97   473.21   552.62   552.65
                              596.71   596.94   599.72   614.39   718.75
                              732.99   733.17   765.04   789.72   789.73
                              927.09   927.13   928.47  1033.44  1033.60
                             1034.13  1073.52  1081.43  1081.49  1199.70
                             1200.29  1200.45  1217.15  1217.36  1221.70
                             1395.08  1395.29  1395.80  1400.57  1400.93
                             1405.59  1479.04  1479.08  1481.41  1579.42
                             1579.50  1584.84  1608.92  1609.07  1613.19
                             1639.37  1639.40  1639.57  1754.30  1754.42
                             1756.55  1896.79  1902.42  1902.57  1924.22
                             1924.37  1924.71  2056.82  2057.46  2057.54
                             2197.22  2197.26  2197.29  2317.92  2318.28
                             2318.31  2350.16  2350.18  2351.67  4586.95
                             4587.00  4587.00  4612.44  4612.62  4613.44
                             4636.65  4636.66  4636.86  4638.19  4638.22
                             4638.56

 Zero-point correction=                           0.245211 (Hartree/Particle)
 Thermal correction to Energy=                    0.264852
 Thermal correction to Enthalpy=                  0.265796
 Thermal correction to Gibbs Free Energy=         0.192405
 Sum of electronic and zero-point Energies=          -2414.841037
 Sum of electronic and thermal Energies=             -2414.821396
 Sum of electronic and thermal Enthalpies=           -2414.820451
 Sum of electronic and thermal Free Energies=        -2414.893842

                     E (Thermal)             CV                S
                      KCal/Mol        Cal/Mol-Kelvin    Cal/Mol-Kelvin
 Total                  166.197             74.116            154.465
 Electronic               0.000              0.000              0.000
 Translational            0.889              2.981             43.569
 Rotational               0.889              2.981             36.372
 Vibrational            164.420             68.154             74.524
 Vibration     1          0.593              1.985              6.403
 Vibration     2          0.593              1.985              6.266
 Vibration     3          0.593              1.984              5.851
 Vibration     4          0.594              1.984              5.811
 Vibration     5          0.594              1.981              5.333
 Vibration     6          0.594              1.981              5.231
 Vibration     7          0.606              1.942              3.279
 Vibration     8          0.608              1.935              3.138
 Vibration     9          0.608              1.934              3.135
 Vibration    10          0.630              1.865              2.317
 Vibration    11          0.632              1.857              2.253
 Vibration    12          0.632              1.857              2.251
 Vibration    13          0.671              1.739              1.635
 Vibration    14          0.688              1.685              1.453
 Vibration    15          0.689              1.685              1.452
 Vibration    16          0.700              1.653              1.357
 Vibration    17          0.712              1.618              1.266
 Vibration    18          0.712              1.618              1.265
 Vibration    19          0.753              1.504              1.023
 Vibration    20          0.753              1.504              1.023
 Vibration    21          0.778              1.438              0.910
 Vibration    22          0.778              1.438              0.909
 Vibration    23          0.780              1.434              0.903
 Vibration    24          0.789              1.411              0.868
 Vibration    25          0.855              1.251              0.659
 Vibration    26          0.865              1.229              0.635
 Vibration    27          0.865              1.229              0.635
 Vibration    28          0.887              1.180              0.583
 Vibration    29          0.904              1.142              0.546
 Vibration    30          0.904              1.142              0.546

                           ! Non-Optimized Parameters !
 Normal termination of Gaussian 16 at Sun Aug 23 08:14:14 2020.
 Gaussian 16:  ES64L-G16RevA.03 25-Dec-2016

 ----------------------------------------------------------------------
 # TD(NStates=10, Root=1) B3LYP/6-31G* scf=qc volume pop=NPA density=cu
 rrent Geom=AllCheck Guess=Read
 ----------------------------------------------------------------------

 Structure from the checkpoint file:  "phosphine_11_conf83.chk"
 -------------------
 Title Card Required
 -------------------
 Charge =  0 Multiplicity = 1

                         Standard orientation:
 ---------------------------------------------------------------------
 Center     Atomic      Atomic             Coordinates (Angstroms)
 Number     Number       Type             X           Y           Z
 ---------------------------------------------------------------------
      1          6           0        2.756115   -2.968432    0.851872
      2          6           0        2.035471   -1.894560    1.371267
      3          6           0        0.870587   -1.423681    0.742667
      4          6           0        0.430876   -2.078118   -0.417679
      5          6           0        1.134355   -3.162487   -0.944134
      6          6           0        2.295116   -3.595515   -0.305464
      7         17           0        3.187091   -4.959400   -0.963420
      8         15           0       -0.000746   -0.000100    1.547348
      9          6           0        0.797069    1.465798    0.742385
     10          6           0        1.580338    1.412113   -0.420235
     11          6           0        2.168626    2.562974   -0.946806
     12          6           0        1.967610    3.784318   -0.305904
     13          6           0        1.197358    3.870110    0.853620
     14          6           0        0.626612    2.709585    1.373018
     15         17           0        2.704143    5.238053   -0.963855
     16          6           0       -1.669053   -0.042522    0.742232
     17          6           0       -2.660780   -0.812232    1.372951
     18          6           0       -3.951189   -0.898575    0.853602
     19          6           0       -4.262238   -0.188729   -0.305928
     20          6           0       -3.305257    0.596264   -0.946876
     21          6           0       -2.014427    0.662561   -0.420375
     22         17           0       -5.889483   -0.278124   -0.963775
     23          1           0        3.656594   -3.322773    1.342292
     24          1           0        2.384999   -1.419087    2.284565
     25          1           0       -0.472830   -1.746361   -0.919594
     26          1           0        0.786620   -3.665272   -1.840575
     27          1           0        1.741580    0.463863   -0.923720
     28          1           0        2.775372    2.513150   -1.844966
     29          1           0        1.057346    4.826764    1.345695
     30          1           0        0.042676    2.774534    2.287975
     31          1           0       -2.424886   -1.350285    2.287938
     32          1           0       -4.709498   -1.498335    1.345722
     33          1           0       -3.565666    1.146569   -1.845022
     34          1           0       -1.274044    1.276492   -0.923949
 ---------------------------------------------------------------------

 SCF Done:  E(RB3LYP) =  -2415.08624772     a.u. after    1 cycles

 Excitation energies and oscillator strengths:

 Excited State   1:      Singlet-A      4.4052 eV  281.45 nm  f=0.1830  <S**2>=0.000
      93 -> 94         0.69578
 This state for optimization and/or second-order correction.
 Total Energy, E(TD-HF/TD-DFT) =  -2414.92436025
 Copying the excited state density for this state as the 1-particle RhoCI density.

 Excited State   2:      Singlet-A      4.4068 eV  281.35 nm  f=0.1840  <S**2>=0.000
      93 -> 95         0.69576

 Excited State   3:      Singlet-A      4.6117 eV  268.84 nm  f=0.0036  <S**2>=0.000
      89 -> 94        -0.10986
      90 -> 95        -0.11023
      93 -> 96         0.67972

 Excited State   4:      Singlet-A      4.9172 eV  252.14 nm  f=0.0001  <S**2>=0.000
      88 -> 94        -0.11962
      89 -> 95         0.11619
      89 -> 97         0.10040
      90 -> 94         0.11605
      93 -> 98         0.64603

 Excited State   5:      Singlet-A      4.9179 eV  252.11 nm  f=0.0001  <S**2>=0.000
      88 -> 95         0.11959
      89 -> 94        -0.11649
      90 -> 95         0.11664
      90 -> 97        -0.10101
      93 -> 99         0.64566

 Excited State   6:      Singlet-A      5.0220 eV  246.88 nm  f=0.0090  <S**2>=0.000
      91 -> 94         0.11761
      92 -> 95         0.11792
      93 -> 97         0.66878

 Excited State   7:      Singlet-A      5.2596 eV  235.73 nm  f=0.0017  <S**2>=0.000
      89 -> 94         0.13260
      90 -> 95         0.13042
      91 -> 94         0.23847
      91 -> 95        -0.37343
      91 -> 98        -0.12292
      92 -> 94         0.37712
      92 -> 95         0.23769
      92 -> 99         0.12119
      93 -> 96         0.10391

 Excited State   8:      Singlet-A      5.3612 eV  231.26 nm  f=0.0050  <S**2>=0.000
      88 -> 94        -0.19192
      89 -> 95         0.17282
      89 -> 97         0.11249
      90 -> 94         0.17331
      91 -> 95         0.13802
      91 -> 96         0.37740
      91 -> 99         0.14719
      92 -> 94         0.13838
      92 -> 96        -0.23024
      92 -> 98        -0.14892
      93 -> 98        -0.22843

 Excited State   9:      Singlet-A      5.3619 eV  231.23 nm  f=0.0049  <S**2>=0.000
      88 -> 95        -0.19057
      89 -> 94         0.17312
      90 -> 95        -0.17240
      90 -> 97         0.11256
      91 -> 94         0.13854
      91 -> 96         0.22899
      91 -> 98        -0.14787
      92 -> 95        -0.14044
      92 -> 96         0.37930
      92 -> 99        -0.14772
      93 -> 99         0.22906

 Excited State  10:      Singlet-A      5.4212 eV  228.70 nm  f=0.1612  <S**2>=0.000
      91 -> 94         0.38819
      91 -> 95        -0.25619
      92 -> 94        -0.25572
      92 -> 95        -0.38616
      92 -> 96        -0.13594

 The electronic state is 1-A.
 Alpha  occ. eigenvalues -- -101.55493-101.55492-101.55491 -77.10094 -10.26330
 Alpha  occ. eigenvalues --  -10.26329 -10.26326 -10.21419 -10.21418 -10.21417
 Alpha  occ. eigenvalues --  -10.21368 -10.21367 -10.21366 -10.21347 -10.21346
 Alpha  occ. eigenvalues --  -10.21344 -10.21313 -10.21312 -10.21311 -10.21249
 Alpha  occ. eigenvalues --  -10.21248 -10.21246  -9.47125  -9.47124  -9.47123
 Alpha  occ. eigenvalues --   -7.23520  -7.23519  -7.23518  -7.22555  -7.22555
 Alpha  occ. eigenvalues --   -7.22553  -7.22518  -7.22517  -7.22516  -6.56809
 Alpha  occ. eigenvalues --   -4.73069  -4.73069  -4.72564  -0.89964  -0.89792
 Alpha  occ. eigenvalues --   -0.89790  -0.85153  -0.84237  -0.84236  -0.76898
 Alpha  occ. eigenvalues --   -0.76780  -0.76779  -0.76742  -0.73907  -0.73905
 Alpha  occ. eigenvalues --   -0.65058  -0.63150  -0.62987  -0.62986  -0.60497
 Alpha  occ. eigenvalues --   -0.60496  -0.57615  -0.52432  -0.52430  -0.49746
 Alpha  occ. eigenvalues --   -0.48088  -0.47999  -0.47998  -0.47167  -0.47167
 Alpha  occ. eigenvalues --   -0.46321  -0.44340  -0.44246  -0.44245  -0.42725
 Alpha  occ. eigenvalues --   -0.42724  -0.40320  -0.40238  -0.40237  -0.39580
 Alpha  occ. eigenvalues --   -0.37219  -0.37218  -0.37129  -0.35190  -0.35187
 Alpha  occ. eigenvalues --   -0.34135  -0.33461  -0.33458  -0.31867  -0.31862
 Alpha  occ. eigenvalues --   -0.31861  -0.27683  -0.27414  -0.27143  -0.27141
 Alpha  occ. eigenvalues --   -0.25830  -0.25827  -0.22677
 Alpha virt. eigenvalues --   -0.03959  -0.03954  -0.03033  -0.01964  -0.01788
 Alpha virt. eigenvalues --   -0.01784   0.02242   0.02244   0.02402   0.05590
 Alpha virt. eigenvalues --    0.05597   0.10343   0.12154   0.12345   0.12346

 Mulliken charges:
               1
     1  C   -0.115055
     2  C   -0.157845
     3  C   -0.080761
     4  C   -0.147691
     5  C   -0.117194
     6  C   -0.063643
     7  Cl   0.016339
     8  P    0.446496
     9  C   -0.107044
    10  C   -0.171422
    11  C   -0.113539
    12  C   -0.090223
    13  C   -0.125578
    14  C   -0.156914
    15  Cl  -0.027847
    16  C   -0.127881
    17  C   -0.174482
    18  C   -0.119025
    19  C   -0.097093
    20  C   -0.121581
    21  C   -0.165085
    22  Cl  -0.037742
    23  H    0.170464
    24  H    0.161462
    25  H    0.185190
    26  H    0.174362
    27  H    0.138540
    28  H    0.154117
    29  H    0.152291
    30  H    0.141645
    31  H    0.129683
    32  H    0.146390
    33  H    0.150567
    34  H    0.150095
 Sum of Mulliken charges =  -0.00000

 Dipole moment (field-independent basis, Debye):
    X=              2.8122    Y=             -3.1122    Z=              1.9737  Tot=              4.6357
 Quadrupole moment (field-independent basis, Debye-Ang):
   XX=           -172.7072   YY=           -162.4057   ZZ=           -145.0370
   XY=             -7.3297   XZ=              0.0334   YZ=              1.0396

 Summary of Natural Population Analysis:

                                       Natural Population
                Natural  -----------------------------------------------
    Atom  No    Charge         Core      Valence    Rydberg      Total
 -----------------------------------------------------------------------
      C    1   -0.24439      1.99893     4.23015    0.01532     6.24439
      C    2   -0.19374      1.99902     4.17956    0.01516     6.19374
      C    3   -0.37868      1.99891     4.35477    0.02500     6.37868
      C    4   -0.19287      1.99900     4.17791    0.01596     6.19287
      C    5   -0.24189      1.99892     4.22767    0.01530     6.24189
      C    6   -0.01544      1.99855     3.99462    0.02228     6.01544
     Cl    7    0.02862      9.99967     6.95243    0.01928    16.97138
      P    8    1.21207      9.99758     3.74050    0.04985    13.78793
      C    9   -0.44013      1.99887     4.41710    0.02416     6.44013
      C   10   -0.24682      1.99899     4.23045    0.01739     6.24682
      C   11   -0.23544      1.99893     4.22108    0.01544     6.23544
      C   12   -0.07020      1.99854     4.04943    0.02222     6.07020
      C   13   -0.26394      1.99894     4.24848    0.01653     6.26394
      C   14   -0.19729      1.99901     4.18267    0.01561     6.19729
     Cl   15   -0.00479      9.99967     6.98494    0.02017    17.00479
      C   16   -0.47624      1.99887     4.45132    0.02605     6.47624
      C   17   -0.22557      1.99901     4.21041    0.01615     6.22557
      C   18   -0.25201      1.99894     4.23704    0.01604     6.25201
      C   19   -0.08400      1.99854     4.06322    0.02225     6.08400
      C   20   -0.24975      1.99893     4.23479    0.01603     6.24975
      C   21   -0.22941      1.99899     4.21305    0.01737     6.22941
     Cl   22   -0.01193      9.99967     6.99186    0.02040    17.01193
      H   23    0.26127      0.00000     0.73767    0.00106     0.73873
      H   24    0.24996      0.00000     0.74888    0.00116     0.75004
      H   25    0.26725      0.00000     0.73156    0.00119     0.73275
      H   26    0.26368      0.00000     0.73527    0.00105     0.73632
      H   27    0.24124      0.00000     0.75743    0.00133     0.75876
      H   28    0.25404      0.00000     0.74491    0.00106     0.74596
      H   29    0.25335      0.00000     0.74562    0.00103     0.74665
      H   30    0.24043      0.00000     0.75845    0.00112     0.75957
      H   31    0.23284      0.00000     0.76624    0.00091     0.76716
      H   32    0.24988      0.00000     0.74904    0.00108     0.75012
      H   33    0.25264      0.00000     0.74631    0.00105     0.74736
      H   34    0.24727      0.00000     0.75121    0.00152     0.75273
 =======================================================================
   * Total *   -0.00000     75.97648   109.56603    0.45749   186.00000

 Normal termination of Gaussian 16 at Sun Aug 23 08:31:49 2020.
