 Gaussian 16, Revision A.03,

 ---------------------------------
 # opt=CalcAll B3LYP/6-31G* scf=qc
 ---------------------------------

 -------------------
 Title Card Required
 -------------------
 Symbolic Z-matrix:
 Charge =  0 Multiplicity = 1

 SCF Done:  E(RB3LYP) =  -2415.03497442     a.u. after    8 cycles
 SCF Done:  E(RB3LYP) =  -2415.04892771     a.u. after   17 cycles
 SCF Done:  E(RB3LYP) =  -2415.06741117     a.u. after   17 cycles
 SCF Done:  E(RB3LYP) =  -2415.07844593     a.u. after   17 cycles
 SCF Done:  E(RB3LYP) =  -2415.08193846     a.u. after   17 cycles
 SCF Done:  E(RB3LYP) =  -2415.08465125     a.u. after   15 cycles
 SCF Done:  E(RB3LYP) =  -2415.08585813     a.u. after   17 cycles
 SCF Done:  E(RB3LYP) =  -2415.08615975     a.u. after   17 cycles
 SCF Done:  E(RB3LYP) =  -2415.08624026     a.u. after    7 cycles
 SCF Done:  E(RB3LYP) =  -2415.08624049     a.u. after    4 cycles
 SCF Done:  E(RB3LYP) =  -2415.08624220     a.u. after    3 cycles
 SCF Done:  E(RB3LYP) =  -2415.08624318     a.u. after    2 cycles
 SCF Done:  E(RB3LYP) =  -2415.08624363     a.u. after    2 cycles
 SCF Done:  E(RB3LYP) =  -2415.08624839     a.u. after    2 cycles
 SCF Done:  E(RB3LYP) =  -2415.08624099     a.u. after    4 cycles
 SCF Done:  E(RB3LYP) =  -2415.08624416     a.u. after    2 cycles
 SCF Done:  E(RB3LYP) =  -2415.08624312     a.u. after    2 cycles
 SCF Done:  E(RB3LYP) =  -2415.08624361     a.u. after    2 cycles
 Optimization completed.
    -- Stationary point found.
 Normal termination of Gaussian 16 at Sun Aug 23 03:41:44 2020.

 ----------------------------------------------------------------------
 # freq B3LYP/6-31G* scf=qc volume NMR pop=NPA density=current Geom=All
 Check Guess=Read
 ----------------------------------------------------------------------

 Structure from the checkpoint file:  "phosphine_11_conf182.chk"
 -------------------
 Title Card Required
 -------------------
 Charge =  0 Multiplicity = 1

 SCF Done:  E(RB3LYP) =  -2415.08624361     a.u. after    1 cycles

      1  C    Isotropic =    67.5444   Anisotropy =   140.5865

      2  C    Isotropic =    60.2180   Anisotropy =   160.2811

      3  C    Isotropic =    58.7283   Anisotropy =   177.4302

      4  C    Isotropic =    61.8914   Anisotropy =   168.5953

      5  C    Isotropic =    67.5410   Anisotropy =   140.1059

      6  C    Isotropic =    51.6023   Anisotropy =   109.1426

      7  Cl   Isotropic =   721.0191   Anisotropy =   452.8367

      8  P    Isotropic =   364.8095   Anisotropy =    37.3928

      9  C    Isotropic =    58.7455   Anisotropy =   177.4449

     10  C    Isotropic =    61.8819   Anisotropy =   168.6340

     11  C    Isotropic =    67.5419   Anisotropy =   140.1179

     12  C    Isotropic =    51.5989   Anisotropy =   109.1498

     13  C    Isotropic =    67.5520   Anisotropy =   140.5637

     14  C    Isotropic =    60.2145   Anisotropy =   160.2653

     15  Cl   Isotropic =   720.9375   Anisotropy =   452.9327

     16  C    Isotropic =    58.7523   Anisotropy =   177.4465

     17  C    Isotropic =    60.2346   Anisotropy =   160.2884

     18  C    Isotropic =    67.5645   Anisotropy =   140.5942

     19  C    Isotropic =    51.6021   Anisotropy =   109.1447

     20  C    Isotropic =    67.5374   Anisotropy =   140.0931

     21  C    Isotropic =    61.9069   Anisotropy =   168.6315

     22  Cl   Isotropic =   720.9530   Anisotropy =   452.9930

     23  H    Isotropic =    25.0908   Anisotropy =     6.6364

     24  H    Isotropic =    24.7781   Anisotropy =     8.9734

     25  H    Isotropic =    25.5821   Anisotropy =    12.1133

     26  H    Isotropic =    25.2094   Anisotropy =     8.1403

     27  H    Isotropic =    25.5790   Anisotropy =    12.1104

     28  H    Isotropic =    25.2071   Anisotropy =     8.1422

     29  H    Isotropic =    25.0948   Anisotropy =     6.6286

     30  H    Isotropic =    24.7785   Anisotropy =     8.9655

     31  H    Isotropic =    24.7793   Anisotropy =     8.9693

     32  H    Isotropic =    25.0925   Anisotropy =     6.6323

     33  H    Isotropic =    25.2104   Anisotropy =     8.1418

     34  H    Isotropic =    25.5828   Anisotropy =    12.1179

  Exact polarizability: 280.615   0.007 280.530   0.020  -0.028 185.164
 Approx polarizability: 393.455   0.015 393.279   0.046  -0.066 343.271

                      1                      2                      3
                      A                      A                      A
 Frequencies --     21.7862                22.8365                29.3600
 Red. masses --      4.6130                 4.7143                 8.8582
 Frc consts  --      0.0013                 0.0014                 0.0045
 IR Inten    --      0.2789                 0.2721                 0.1851

                      4                      5                      6
                      A                      A                      A
 Frequencies --     29.4739                38.1036                40.0004
 Red. masses --      9.0013                 6.8446                 5.0898
 Frc consts  --      0.0046                 0.0059                 0.0048
 IR Inten    --      0.1899                 0.1732                 0.0551

                      7                      8                      9
                      A                      A                      A
 Frequencies --    109.1951               117.5504               117.7814
 Red. masses --      8.8629                 8.8283                 8.8331
 Frc consts  --      0.0623                 0.0719                 0.0722
 IR Inten    --      0.0249                 0.3532                 0.3490

                     10                     11                     12
                      A                      A                      A
 Frequencies --    181.0352               187.3551               187.5517
 Red. masses --     10.0370                 8.7796                 8.7930
 Frc consts  --      0.1938                 0.1816                 0.1822
 IR Inten    --      0.3328                 0.5733                 0.5718

                     13                     14                     15
                      A                      A                      A
 Frequencies --    264.0009               293.5798               293.7020
 Red. masses --      8.9741                 8.3985                 8.4065
 Frc consts  --      0.3685                 0.4265                 0.4272
 IR Inten    --      0.2160                 0.9000                 0.9122

                     16                     17                     18
                      A                      A                      A
 Frequencies --    310.8360               328.6864               328.8170
 Red. masses --      6.0442                 5.9857                 5.9829
 Frc consts  --      0.3441                 0.3810                 0.3811
 IR Inten    --      0.0034                 1.8883                 1.8858

                     19                     20                     21
                      A                      A                      A
 Frequencies --    383.9351               384.0521               414.5716
 Red. masses --      8.0334                 8.0236                 3.0437
 Frc consts  --      0.6977                 0.6973                 0.3082
 IR Inten    --     20.9695                20.9764                 0.0590

                     22                     23                     24
                      A                      A                      A
 Frequencies --    414.6956               416.6625               426.9381
 Red. masses --      3.0449                 3.2084                 6.6190
 Frc consts  --      0.3085                 0.3282                 0.7108
 IR Inten    --      0.0559                 0.1626                 2.9401

                     25                     26                     27
                      A                      A                      A
 Frequencies --    499.5387               509.3268               509.5125
 Red. masses --      5.5117                 3.6428                 3.6455
 Frc consts  --      0.8104                 0.5568                 0.5576
 IR Inten    --      6.8536                19.9692                19.8844

                     28                     29                     30
                      A                      A                      A
 Frequencies --    531.6037               548.7922               548.8013
 Red. masses --      4.5742                 7.4449                 7.4347
 Frc consts  --      0.7616                 1.3211                 1.3193
 IR Inten    --      9.8557                 5.4376                 5.4536

                     31                     32                     33
                      A                      A                      A
 Frequencies --    644.3344               644.3498               645.2853
 Red. masses --      7.1595                 7.1595                 7.1683
 Frc consts  --      1.7513                 1.7514                 1.7586
 IR Inten    --      0.0371                 0.0379                 0.0969

                     34                     35                     36
                      A                      A                      A
 Frequencies --    718.1675               718.2766               718.7265
 Red. masses --      4.5840                 4.5874                 4.6046
 Frc consts  --      1.3930                 1.3944                 1.4014
 IR Inten    --      1.7003                 1.6067                 0.3622

                     37                     38                     39
                      A                      A                      A
 Frequencies --    746.1235               751.6308               751.6728
 Red. masses --      7.2614                 7.2732                 7.2772
 Frc consts  --      2.3817                 2.4209                 2.4225
 IR Inten    --     14.6276                54.3977                54.2470

                     40                     41                     42
                      A                      A                      A
 Frequencies --    833.6484               834.1446               834.2056
 Red. masses --      1.4176                 1.4317                 1.4320
 Frc consts  --      0.5805                 0.5869                 0.5871
 IR Inten    --     23.6207                32.5774                32.9162

                     43                     44                     45
                      A                      A                      A
 Frequencies --    845.7971               845.8787               848.9223
 Red. masses --      1.2467                 1.2467                 1.2501
 Frc consts  --      0.5255                 0.5255                 0.5308
 IR Inten    --      0.6347                 0.6358                 0.2972

                     46                     47                     48
                      A                      A                      A
 Frequencies --    969.4888               969.5932               969.9793
 Red. masses --      1.2758                 1.2762                 1.2874
 Frc consts  --      0.7065                 0.7069                 0.7137
 IR Inten    --      0.1560                 0.1529                 0.2175

                     49                     50                     51
                      A                      A                      A
 Frequencies --    973.2204               973.3686               976.5827
 Red. masses --      1.3465                 1.3456                 1.3227
 Frc consts  --      0.7514                 0.7511                 0.7432
 IR Inten    --      0.0100                 0.0125                 0.4178

                     52                     53                     54
                      A                      A                      A
 Frequencies --   1027.9388              1027.9813              1029.6245
 Red. masses --      4.7567                 4.7652                 4.7023
 Frc consts  --      2.9613                 2.9669                 2.9371
 IR Inten    --     62.7306                62.6832                 5.1174

                     55                     56                     57
                      A                      A                      A
 Frequencies --   1097.7400              1097.8214              1101.5273
 Red. masses --      7.9009                 7.9409                 8.0713
 Frc consts  --      5.6095                 5.6388                 5.7701
 IR Inten    --     81.0268                81.6900                13.7346

                     58                     59                     60
                      A                      A                      A
 Frequencies --   1118.1670              1118.4504              1121.3005
 Red. masses --      2.1232                 2.1208                 2.1025
 Frc consts  --      1.5641                 1.5631                 1.5575
 IR Inten    --     33.1647                32.3437                 6.4567

                     61                     62                     63
                      A                      A                      A
 Frequencies --   1139.2289              1139.4199              1139.6538
 Red. masses --      1.4011                 1.4019                 1.4027
 Frc consts  --      1.0714                 1.0723                 1.0734
 IR Inten    --      0.2159                 1.7735                 2.1200

                     64                     65                     66
                      A                      A                      A
 Frequencies --   1218.9989              1219.5073              1220.9557
 Red. masses --      1.1568                 1.1572                 1.1520
 Frc consts  --      1.0128                 1.0140                 1.0118
 IR Inten    --      4.8516                 4.7230                 0.9909

                     67                     68                     69
                      A                      A                      A
 Frequencies --   1318.3041              1322.2220              1322.3605
 Red. masses --      6.9315                 7.5431                 7.7626
 Frc consts  --      7.0976                 7.7697                 7.9976
 IR Inten    --      1.3176                 2.6749                 2.6535

                     70                     71                     72
                      A                      A                      A
 Frequencies --   1337.1835              1337.4971              1337.9770
 Red. masses --      1.3360                 1.3418                 1.3389
 Frc consts  --      1.4075                 1.4142                 1.4122
 IR Inten    --      0.3580                 0.8406                 1.0828

                     73                     74                     75
                      A                      A                      A
 Frequencies --   1429.5740              1429.9208              1430.1231
 Red. masses --      2.6346                 2.6445                 2.6376
 Frc consts  --      3.1723                 3.1857                 3.1783
 IR Inten    --     19.2686                 6.0696                 6.5620

                     76                     77                     78
                      A                      A                      A
 Frequencies --   1527.0760              1527.1481              1527.2726
 Red. masses --      2.0781                 2.0903                 2.0792
 Frc consts  --      2.8552                 2.8723                 2.8575
 IR Inten    --     63.3893                27.1962                51.4698

                     79                     80                     81
                      A                      A                      A
 Frequencies --   1611.0319              1611.2454              1611.3300
 Red. masses --      6.6407                 6.6650                 6.6557
 Frc consts  --     10.1548                10.1947                10.1816
 IR Inten    --      3.8456                 3.8265                 3.8347

                     82                     83                     84
                      A                      A                      A
 Frequencies --   1633.4207              1633.4745              1634.5074
 Red. masses --      5.4310                 5.4245                 5.4915
 Frc consts  --      8.5374                 8.5278                 8.6440
 IR Inten    --     29.8066                29.6612                13.1296

                     85                     86                     87
                      A                      A                      A
 Frequencies --   3188.0317              3188.1029              3188.1968
 Red. masses --      1.0892                 1.0892                 1.0892
 Frc consts  --      6.5226                 6.5226                 6.5230
 IR Inten    --      5.7669                 3.6061                 3.3066

                     88                     89                     90
                      A                      A                      A
 Frequencies --   3205.5171              3205.6227              3206.2110
 Red. masses --      1.0879                 1.0879                 1.0879
 Frc consts  --      6.5861                 6.5865                 6.5893
 IR Inten    --      0.8586                 0.8586                 0.6799

                     91                     92                     93
                      A                      A                      A
 Frequencies --   3222.5724              3222.6065              3222.7325
 Red. masses --      1.0938                 1.0937                 1.0937
 Frc consts  --      6.6923                 6.6923                 6.6925
 IR Inten    --      2.4602                 2.1201                 9.9762

                     94                     95                     96
                      A                      A                      A
 Frequencies --   3223.6332              3223.6866              3223.9160
 Red. masses --      1.0939                 1.0939                 1.0941
 Frc consts  --      6.6978                 6.6978                 6.7000
 IR Inten    --      5.7423                 5.5204                 0.1602

 - Thermochemistry -
 -------------------
 Temperature   298.150 Kelvin.  Pressure   1.00000 Atm.
 Atom     1 has atomic number  6 and mass  12.00000

 Molecular mass:   363.97422 amu.
 Principal axes and moments of inertia in atomic units:
                           1         2         3
     Eigenvalues --  ******************************
           X            1.00000   0.00160   0.00000
           Y           -0.00160   1.00000  -0.00000
           Z           -0.00000   0.00000   1.00000
 This molecule is an asymmetric top.
 Rotational symmetry number  1.
 Warning -- assumption of classical behavior for rotation
           may cause significant error
 Rotational temperatures (Kelvin)      0.00723     0.00723     0.00405
 Rotational constants (GHZ):           0.15062     0.15061     0.08440
 Zero-point vibrational energy     643736.2 (Joules/Mol)
                                  153.85665 (Kcal/Mol)
 Warning -- explicit consideration of  30 degrees of freedom as
           vibrations may cause significant error
 Vibrational temperatures:     31.35    32.86    42.24    42.41    54.82
          (Kelvin)             57.55   157.11   169.13   169.46   260.47
                              269.56   269.85   379.84   422.40   422.57
                              447.22   472.91   473.09   552.40   552.57
                              596.48   596.65   599.48   614.27   718.72
                              732.81   733.07   764.86   789.59   789.60
                              927.05   927.08   928.42  1033.28  1033.44
                             1034.09  1073.51  1081.43  1081.49  1199.43
                             1200.15  1200.24  1216.91  1217.03  1221.41
                             1394.88  1395.03  1395.58  1400.25  1400.46
                             1405.08  1478.97  1479.04  1481.40  1579.40
                             1579.52  1584.85  1608.79  1609.20  1613.30
                             1639.10  1639.37  1639.71  1753.87  1754.60
                             1756.68  1896.75  1902.38  1902.58  1923.91
                             1924.36  1925.05  2056.84  2057.34  2057.63
                             2197.12  2197.23  2197.40  2317.92  2318.22
                             2318.34  2350.13  2350.21  2351.69  4586.87
                             4586.97  4587.10  4612.02  4612.18  4613.02
                             4636.56  4636.61  4636.79  4638.09  4638.17
                             4638.50

 Zero-point correction=                           0.245186 (Hartree/Particle)
 Thermal correction to Energy=                    0.264840
 Thermal correction to Enthalpy=                  0.265784
 Thermal correction to Gibbs Free Energy=         0.192245
 Sum of electronic and zero-point Energies=          -2414.841057
 Sum of electronic and thermal Energies=             -2414.821404
 Sum of electronic and thermal Enthalpies=           -2414.820460
 Sum of electronic and thermal Free Energies=        -2414.893998

                     E (Thermal)             CV                S
                      KCal/Mol        Cal/Mol-Kelvin    Cal/Mol-Kelvin
 Total                  166.190             74.125            154.776
 Electronic               0.000              0.000              0.000
 Translational            0.889              2.981             43.569
 Rotational               0.889              2.981             36.372
 Vibrational            164.412             68.164             74.835
 Vibration     1          0.593              1.985              6.464
 Vibration     2          0.593              1.985              6.371
 Vibration     3          0.593              1.984              5.872
 Vibration     4          0.593              1.984              5.865
 Vibration     5          0.594              1.982              5.355
 Vibration     6          0.594              1.981              5.259
 Vibration     7          0.606              1.942              3.283
 Vibration     8          0.608              1.935              3.140
 Vibration     9          0.608              1.935              3.136
 Vibration    10          0.630              1.865              2.318
 Vibration    11          0.632              1.857              2.254
 Vibration    12          0.632              1.857              2.252
 Vibration    13          0.671              1.739              1.635
 Vibration    14          0.688              1.686              1.453
 Vibration    15          0.688              1.685              1.453
 Vibration    16          0.700              1.653              1.358
 Vibration    17          0.712              1.618              1.267
 Vibration    18          0.712              1.618              1.266
 Vibration    19          0.753              1.504              1.024
 Vibration    20          0.753              1.504              1.023
 Vibration    21          0.778              1.439              0.911
 Vibration    22          0.778              1.438              0.910
 Vibration    23          0.780              1.434              0.903
 Vibration    24          0.789              1.412              0.869
 Vibration    25          0.855              1.251              0.659
 Vibration    26          0.864              1.229              0.635
 Vibration    27          0.865              1.229              0.635
 Vibration    28          0.887              1.180              0.584
 Vibration    29          0.904              1.142              0.547
 Vibration    30          0.904              1.142              0.547

                           ! Non-Optimized Parameters !
 Normal termination of Gaussian 16 at Sun Aug 23 03:57:07 2020.
 Gaussian 16:  ES64L-G16RevA.03 25-Dec-2016

 ----------------------------------------------------------------------
 # TD(NStates=10, Root=1) B3LYP/6-31G* scf=qc volume pop=NPA density=cu
 rrent Geom=AllCheck Guess=Read
 ----------------------------------------------------------------------

 Structure from the checkpoint file:  "phosphine_11_conf183.chk"
 -------------------
 Title Card Required
 -------------------
 Charge =  0 Multiplicity = 1

                         Standard orientation:
 ---------------------------------------------------------------------
 Center     Atomic      Atomic             Coordinates (Angstroms)
 Number     Number       Type             X           Y           Z
 ---------------------------------------------------------------------
      1          6           0       -1.502724   -3.762195    0.852864
      2          6           0       -0.841058   -2.651063    1.372379
      3          6           0       -0.912568   -1.397264    0.742563
      4          6           0       -1.690136   -1.280724   -0.419282
      5          6           0       -2.368570   -2.380837   -0.945920
      6          6           0       -2.264741   -3.614699   -0.305898
      7         17           0       -3.115110   -5.004849   -0.963972
      8         15           0        0.000076   -0.000038    1.547643
      9          6           0        1.666463   -0.091801    0.742632
     10          6           0        1.953929   -0.821949   -0.420267
     11          6           0        3.245840   -0.859337   -0.946964
     12          6           0        4.262844   -0.153917   -0.305917
     13          6           0        4.009969    0.578204    0.853906
     14          6           0        2.716867    0.595575    1.373447
     15         17           0        5.891909   -0.195147   -0.964069
     16          6           0       -0.753715    1.488970    0.742693
     17          6           0       -1.875770    2.053408    1.372142
     18          6           0       -2.507306    3.181961    0.852668
     19          6           0       -1.998161    3.768656   -0.305658
     20          6           0       -0.877209    3.242191   -0.945278
     21          6           0       -0.263611    2.104617   -0.418700
     22         17           0       -2.776992    5.200114   -0.963732
     23          1           0       -1.438783   -4.727266    1.344269
     24          1           0       -0.263342   -2.762847    2.286764
     25          1           0       -1.775884   -0.322361   -0.922137
     26          1           0       -2.970239   -2.282352   -1.843479
     27          1           0        1.166512   -1.374230   -0.923897
     28          1           0        3.461101   -1.428442   -1.845351
     29          1           0        4.814059    1.114978    1.346082
     30          1           0        2.525057    1.150525    2.288644
     31          1           0       -2.261738    1.608560    2.286196
     32          1           0       -3.375435    3.608685    1.343779
     33          1           0       -0.490796    3.714398   -1.842509
     34          1           0        0.609575    1.700134   -0.921314
 ---------------------------------------------------------------------

 SCF Done:  E(RB3LYP) =  -2415.08624361     a.u. after    1 cycles

 Excitation energies and oscillator strengths:

 Excited State   1:      Singlet-A      4.4059 eV  281.41 nm  f=0.1832  <S**2>=0.000
      93 -> 94         0.69578
 This state for optimization and/or second-order correction.
 Total Energy, E(TD-HF/TD-DFT) =  -2414.92433105
 Copying the excited state density for this state as the 1-particle RhoCI density.

 Excited State   2:      Singlet-A      4.4067 eV  281.36 nm  f=0.1837  <S**2>=0.000
      93 -> 95         0.69577

 Excited State   3:      Singlet-A      4.6121 eV  268.83 nm  f=0.0036  <S**2>=0.000
      89 -> 94        -0.10944
      90 -> 95        -0.10961
      93 -> 96         0.67970

 Excited State   4:      Singlet-A      4.9176 eV  252.12 nm  f=0.0001  <S**2>=0.000
      88 -> 94         0.11419
      89 -> 94        -0.11188
      89 -> 97        -0.10085
      90 -> 95         0.11213
      93 -> 98         0.64526

 Excited State   5:      Singlet-A      4.9180 eV  252.10 nm  f=0.0001  <S**2>=0.000
      88 -> 95         0.11407
      89 -> 95         0.11245
      90 -> 94         0.11224
      90 -> 97        -0.10117
      93 -> 99         0.64508

 Excited State   6:      Singlet-A      5.0223 eV  246.87 nm  f=0.0089  <S**2>=0.000
      91 -> 94        -0.11598
      92 -> 95        -0.11619
      93 -> 97         0.66880

 Excited State   7:      Singlet-A      5.2595 eV  235.73 nm  f=0.0017  <S**2>=0.000
      89 -> 94         0.13122
      90 -> 95         0.13004
      91 -> 94        -0.24689
      91 -> 95        -0.36882
      91 -> 98        -0.12680
      92 -> 94         0.37053
      92 -> 95        -0.24657
      92 -> 99        -0.12595
      93 -> 96         0.10398

 Excited State   8:      Singlet-A      5.3614 eV  231.25 nm  f=0.0051  <S**2>=0.000
      87 -> 94        -0.10157
      88 -> 94         0.19007
      89 -> 94        -0.19290
      89 -> 97        -0.11190
      90 -> 95         0.19265
      91 -> 94         0.11494
      91 -> 96         0.39049
      91 -> 98         0.11629
      92 -> 95        -0.11583
      92 -> 96         0.20746
      92 -> 99        -0.11616
      93 -> 98        -0.22736

 Excited State   9:      Singlet-A      5.3618 eV  231.24 nm  f=0.0050  <S**2>=0.000
      87 -> 95        -0.10114
      88 -> 95         0.18919
      89 -> 95         0.19272
      90 -> 94         0.19271
      90 -> 97        -0.11191
      91 -> 95        -0.11698
      91 -> 96        -0.20678
      91 -> 99        -0.11590
      92 -> 94        -0.11596
      92 -> 96         0.39149
      92 -> 98        -0.11656
      93 -> 99        -0.22776

 Excited State  10:      Singlet-A      5.4213 eV  228.70 nm  f=0.1613  <S**2>=0.000
      91 -> 94        -0.35776
      91 -> 95         0.29398
      92 -> 94         0.29564
      92 -> 95         0.35867
      92 -> 96         0.13777

 The electronic state is 1-A.
 Alpha  occ. eigenvalues -- -101.55493-101.55492-101.55492 -77.10094 -10.26329
 Alpha  occ. eigenvalues --  -10.26328 -10.26327 -10.21418 -10.21417 -10.21417
 Alpha  occ. eigenvalues --  -10.21367 -10.21366 -10.21366 -10.21347 -10.21345
 Alpha  occ. eigenvalues --  -10.21345 -10.21313 -10.21312 -10.21312 -10.21249
 Alpha  occ. eigenvalues --  -10.21247 -10.21247  -9.47125  -9.47124  -9.47124
 Alpha  occ. eigenvalues --   -7.23520  -7.23519  -7.23518  -7.22555  -7.22554
 Alpha  occ. eigenvalues --   -7.22554  -7.22518  -7.22517  -7.22516  -6.56809
 Alpha  occ. eigenvalues --   -4.73069  -4.73069  -4.72564  -0.89964  -0.89791
 Alpha  occ. eigenvalues --   -0.89790  -0.85153  -0.84237  -0.84236  -0.76898
 Alpha  occ. eigenvalues --   -0.76780  -0.76779  -0.76742  -0.73906  -0.73905
 Alpha  occ. eigenvalues --   -0.65058  -0.63150  -0.62986  -0.62986  -0.60496
 Alpha  occ. eigenvalues --   -0.60496  -0.57615  -0.52431  -0.52430  -0.49747
 Alpha  occ. eigenvalues --   -0.48088  -0.47998  -0.47998  -0.47167  -0.47166
 Alpha  occ. eigenvalues --   -0.46321  -0.44340  -0.44246  -0.44245  -0.42725
 Alpha  occ. eigenvalues --   -0.42724  -0.40319  -0.40238  -0.40237  -0.39580
 Alpha  occ. eigenvalues --   -0.37219  -0.37219  -0.37129  -0.35189  -0.35188
 Alpha  occ. eigenvalues --   -0.34134  -0.33460  -0.33459  -0.31867  -0.31862
 Alpha  occ. eigenvalues --   -0.31861  -0.27683  -0.27413  -0.27143  -0.27141
 Alpha  occ. eigenvalues --   -0.25829  -0.25827  -0.22678
 Alpha virt. eigenvalues --   -0.03958  -0.03956  -0.03032  -0.01964  -0.01787
 Alpha virt. eigenvalues --   -0.01785   0.02242   0.02243   0.02402   0.05591
 Alpha virt. eigenvalues --    0.05595   0.10344   0.12153   0.12345   0.12346

 Mulliken charges:
               1
     1  C   -0.121648
     2  C   -0.151871
     3  C   -0.085381
     4  C   -0.159890
     5  C   -0.113077
     6  C   -0.072919
     7  Cl   0.000419
     8  P    0.446591
     9  C   -0.131416
    10  C   -0.174407
    11  C   -0.118381
    12  C   -0.104059
    13  C   -0.124070
    14  C   -0.169779
    15  Cl  -0.049634
    16  C   -0.098957
    17  C   -0.167600
    18  C   -0.113941
    19  C   -0.073969
    20  C   -0.120887
    21  C   -0.149891
    22  Cl  -0.000026
    23  H    0.164527
    24  H    0.156750
    25  H    0.161254
    26  H    0.166747
    27  H    0.132156
    28  H    0.144876
    29  H    0.141934
    30  H    0.126188
    31  H    0.149840
    32  H    0.162683
    33  H    0.167428
    34  H    0.180410
 Sum of Mulliken charges =  -0.00000

 Dipole moment (field-independent basis, Debye):
    X=             -4.1902    Y=              0.1424    Z=              1.9737  Tot=              4.6340
 Quadrupole moment (field-independent basis, Debye-Ang):
   XX=           -176.4849   YY=           -158.6279   ZZ=           -145.0323
   XY=              0.7545   XZ=              0.7166   YZ=             -0.7420

 Summary of Natural Population Analysis:

                                       Natural Population
                Natural  -----------------------------------------------
    Atom  No    Charge         Core      Valence    Rydberg      Total
 -----------------------------------------------------------------------
      C    1   -0.25656      1.99893     4.24162    0.01601     6.25656
      C    2   -0.18627      1.99901     4.17210    0.01516     6.18627
      C    3   -0.39349      1.99889     4.37061    0.02400     6.39349
      C    4   -0.22163      1.99899     4.20602    0.01663     6.22163
      C    5   -0.23459      1.99893     4.22050    0.01516     6.23459
      C    6   -0.03467      1.99855     4.01388    0.02224     6.03467
     Cl    7    0.01647      9.99967     6.96425    0.01961    16.98353
      P    8    1.21205      9.99758     3.74052    0.04985    13.78795
      C    9   -0.48742      1.99886     4.46328    0.02527     6.48742
      C   10   -0.25135      1.99899     4.23459    0.01777     6.25135
      C   11   -0.24407      1.99893     4.22922    0.01592     6.24407
      C   12   -0.09840      1.99854     4.07767    0.02220     6.09840
      C   13   -0.26135      1.99894     4.24588    0.01653     6.26135
      C   14   -0.21976      1.99901     4.20460    0.01615     6.21976
     Cl   15   -0.02098      9.99968     7.00073    0.02057    17.02098
      C   16   -0.41406      1.99890     4.38922    0.02594     6.41406
      C   17   -0.21059      1.99902     4.19595    0.01562     6.21059
      C   18   -0.24245      1.99893     4.22818    0.01534     6.24245
      C   19   -0.03655      1.99855     4.01570    0.02230     6.03655
      C   20   -0.24844      1.99893     4.23383    0.01568     6.24844
      C   21   -0.19615      1.99899     4.18083    0.01633     6.19615
     Cl   22    0.01643      9.99967     6.96423    0.01967    16.98357
      H   23    0.25897      0.00000     0.73999    0.00103     0.74103
      H   24    0.24829      0.00000     0.75050    0.00120     0.75171
      H   25    0.25403      0.00000     0.74473    0.00124     0.74597
      H   26    0.25996      0.00000     0.73898    0.00106     0.74004
      H   27    0.23738      0.00000     0.76115    0.00147     0.76262
      H   28    0.24985      0.00000     0.74911    0.00104     0.75015
      H   29    0.24815      0.00000     0.75080    0.00105     0.75185
      H   30    0.23161      0.00000     0.76746    0.00094     0.76839
      H   31    0.24333      0.00000     0.75562    0.00105     0.75667
      H   32    0.25737      0.00000     0.74154    0.00109     0.74263
      H   33    0.26054      0.00000     0.73840    0.00106     0.73946
      H   34    0.26435      0.00000     0.73431    0.00133     0.73565
 =======================================================================
   * Total *   -0.00000     75.97648   109.56601    0.45750   186.00000

 Normal termination of Gaussian 16 at Sun Aug 23 04:15:18 2020.
