 Gaussian 16, Revision A.03,

 ---------------------------------
 # opt=CalcAll B3LYP/6-31G* scf=qc
 ---------------------------------

 -------------------
 Title Card Required
 -------------------
 Symbolic Z-matrix:
 Charge =  0 Multiplicity = 1

 SCF Done:  E(RB3LYP) =  -2415.06828328     a.u. after   10 cycles
 SCF Done:  E(RB3LYP) =  -2415.08169026     a.u. after   17 cycles
 SCF Done:  E(RB3LYP) =  -2415.08413780     a.u. after   19 cycles
 SCF Done:  E(RB3LYP) =  -2415.08552594     a.u. after   15 cycles
 SCF Done:  E(RB3LYP) =  -2415.08614099     a.u. after   17 cycles
 SCF Done:  E(RB3LYP) =  -2415.08619131     a.u. after    9 cycles
 SCF Done:  E(RB3LYP) =  -2415.08622670     a.u. after    9 cycles
 SCF Done:  E(RB3LYP) =  -2415.08624671     a.u. after    7 cycles
 SCF Done:  E(RB3LYP) =  -2415.08624034     a.u. after    5 cycles
 SCF Done:  E(RB3LYP) =  -2415.08624256     a.u. after    3 cycles
 SCF Done:  E(RB3LYP) =  -2415.08623950     a.u. after    4 cycles
 SCF Done:  E(RB3LYP) =  -2415.08624827     a.u. after    3 cycles
 SCF Done:  E(RB3LYP) =  -2415.08623933     a.u. after    2 cycles
 SCF Done:  E(RB3LYP) =  -2415.08624756     a.u. after    2 cycles
 SCF Done:  E(RB3LYP) =  -2415.08624920     a.u. after    2 cycles
 SCF Done:  E(RB3LYP) =  -2415.08624015     a.u. after    2 cycles
 SCF Done:  E(RB3LYP) =  -2415.08624365     a.u. after    2 cycles
 SCF Done:  E(RB3LYP) =  -2415.08624449     a.u. after    2 cycles
 Optimization completed.
    -- Stationary point found.
 Normal termination of Gaussian 16 at Sun Aug 23 05:11:13 2020.

 ----------------------------------------------------------------------
 # freq B3LYP/6-31G* scf=qc volume NMR pop=NPA density=current Geom=All
 Check Guess=Read
 ----------------------------------------------------------------------

 Structure from the checkpoint file:  "phosphine_11_conf32.chk"
 -------------------
 Title Card Required
 -------------------
 Charge =  0 Multiplicity = 1

 SCF Done:  E(RB3LYP) =  -2415.08624449     a.u. after    1 cycles

      1  C    Isotropic =    67.5660   Anisotropy =   140.6097

      2  C    Isotropic =    60.2114   Anisotropy =   160.2603

      3  C    Isotropic =    58.7201   Anisotropy =   177.3970

      4  C    Isotropic =    61.8826   Anisotropy =   168.5537

      5  C    Isotropic =    67.5367   Anisotropy =   140.1068

      6  C    Isotropic =    51.6077   Anisotropy =   109.1449

      7  Cl   Isotropic =   721.0322   Anisotropy =   452.8320

      8  P    Isotropic =   364.8129   Anisotropy =    37.5130

      9  C    Isotropic =    58.7433   Anisotropy =   177.4381

     10  C    Isotropic =    60.2201   Anisotropy =   160.2586

     11  C    Isotropic =    67.5564   Anisotropy =   140.5728

     12  C    Isotropic =    51.6011   Anisotropy =   109.1445

     13  C    Isotropic =    67.5386   Anisotropy =   140.1181

     14  C    Isotropic =    61.8846   Anisotropy =   168.6088

     15  Cl   Isotropic =   720.9399   Anisotropy =   452.9704

     16  C    Isotropic =    58.7505   Anisotropy =   177.4118

     17  C    Isotropic =    60.2220   Anisotropy =   160.2704

     18  C    Isotropic =    67.5602   Anisotropy =   140.5948

     19  C    Isotropic =    51.5967   Anisotropy =   109.1563

     20  C    Isotropic =    67.5352   Anisotropy =   140.1125

     21  C    Isotropic =    61.8921   Anisotropy =   168.5982

     22  Cl   Isotropic =   720.9546   Anisotropy =   452.9587

     23  H    Isotropic =    25.0907   Anisotropy =     6.6356

     24  H    Isotropic =    24.7813   Anisotropy =     8.9688

     25  H    Isotropic =    25.5840   Anisotropy =    12.1040

     26  H    Isotropic =    25.2088   Anisotropy =     8.1400

     27  H    Isotropic =    24.7788   Anisotropy =     8.9667

     28  H    Isotropic =    25.0944   Anisotropy =     6.6309

     29  H    Isotropic =    25.2072   Anisotropy =     8.1423

     30  H    Isotropic =    25.5815   Anisotropy =    12.1065

     31  H    Isotropic =    24.7791   Anisotropy =     8.9674

     32  H    Isotropic =    25.0919   Anisotropy =     6.6348

     33  H    Isotropic =    25.2085   Anisotropy =     8.1428

     34  H    Isotropic =    25.5832   Anisotropy =    12.1059

  Exact polarizability: 280.600   0.018 280.579   0.007   0.014 185.156
 Approx polarizability: 393.381   0.043 393.366   0.016   0.034 343.269

                      1                      2                      3
                      A                      A                      A
 Frequencies --     21.1139                22.3071                29.1910
 Red. masses --      4.4344                 4.6228                 9.8580
 Frc consts  --      0.0012                 0.0014                 0.0049
 IR Inten    --      0.2903                 0.2791                 0.1658

                      4                      5                      6
                      A                      A                      A
 Frequencies --     29.3540                38.2482                39.7587
 Red. masses --      9.1136                 6.3067                 5.4358
 Frc consts  --      0.0046                 0.0054                 0.0051
 IR Inten    --      0.1880                 0.1593                 0.0684

                      7                      8                      9
                      A                      A                      A
 Frequencies --    109.2975               117.5242               117.8224
 Red. masses --      8.8675                 8.8300                 8.8312
 Frc consts  --      0.0624                 0.0719                 0.0722
 IR Inten    --      0.0249                 0.3543                 0.3530

                     10                     11                     12
                      A                      A                      A
 Frequencies --    181.0937               187.4636               187.6316
 Red. masses --     10.0408                 8.7840                 8.7956
 Frc consts  --      0.1940                 0.1819                 0.1824
 IR Inten    --      0.3310                 0.5721                 0.5713

                     13                     14                     15
                      A                      A                      A
 Frequencies --    264.0278               293.6081               293.7136
 Red. masses --      8.9770                 8.3988                 8.4078
 Frc consts  --      0.3687                 0.4266                 0.4273
 IR Inten    --      0.2166                 0.9026                 0.9136

                     16                     17                     18
                      A                      A                      A
 Frequencies --    310.8770               328.6630               328.8741
 Red. masses --      6.0443                 5.9843                 5.9787
 Frc consts  --      0.3442                 0.3809                 0.3810
 IR Inten    --      0.0032                 1.8863                 1.8808

                     19                     20                     21
                      A                      A                      A
 Frequencies --    384.0330               384.0666               414.6094
 Red. masses --      8.0297                 8.0228                 3.0445
 Frc consts  --      0.6977                 0.6973                 0.3084
 IR Inten    --     20.9738                20.9782                 0.0582

                     22                     23                     24
                      A                      A                      A
 Frequencies --    414.7345               416.7587               426.9935
 Red. masses --      3.0455                 3.2066                 6.6288
 Frc consts  --      0.3086                 0.3281                 0.7121
 IR Inten    --      0.0600                 0.1607                 2.9388

                     25                     26                     27
                      A                      A                      A
 Frequencies --    499.4347               509.4178               509.5337
 Red. masses --      5.5098                 3.6440                 3.6492
 Frc consts  --      0.8097                 0.5572                 0.5582
 IR Inten    --      6.8598                19.9289                19.9079

                     28                     29                     30
                      A                      A                      A
 Frequencies --    531.6096               548.8466               548.8991
 Red. masses --      4.5779                 7.4199                 7.4414
 Frc consts  --      0.7623                 1.3169                 1.3210
 IR Inten    --      9.8275                 5.4800                 5.4537

                     31                     32                     33
                      A                      A                      A
 Frequencies --    644.3544               644.3705               645.3050
 Red. masses --      7.1598                 7.1598                 7.1681
 Frc consts  --      1.7515                 1.7515                 1.7587
 IR Inten    --      0.0372                 0.0370                 0.0964

                     34                     35                     36
                      A                      A                      A
 Frequencies --    718.2252               718.3186               718.6860
 Red. masses --      4.5865                 4.5900                 4.6061
 Frc consts  --      1.3940                 1.3954                 1.4017
 IR Inten    --      1.6655                 1.6327                 0.3312

                     37                     38                     39
                      A                      A                      A
 Frequencies --    746.1325               751.6065               751.6686
 Red. masses --      7.2598                 7.2708                 7.2734
 Frc consts  --      2.3813                 2.4200                 2.4212
 IR Inten    --     14.6162                54.3783                54.3438

                     40                     41                     42
                      A                      A                      A
 Frequencies --    833.7286               834.1180               834.1909
 Red. masses --      1.4177                 1.4317                 1.4319
 Frc consts  --      0.5806                 0.5869                 0.5871
 IR Inten    --     23.7832                32.5893                32.8246

                     43                     44                     45
                      A                      A                      A
 Frequencies --    845.8143               845.9056               848.9124
 Red. masses --      1.2467                 1.2465                 1.2499
 Frc consts  --      0.5255                 0.5255                 0.5307
 IR Inten    --      0.6058                 0.5776                 0.2774

                     46                     47                     48
                      A                      A                      A
 Frequencies --    969.5003               969.6066               970.1000
 Red. masses --      1.2753                 1.2755                 1.2870
 Frc consts  --      0.7063                 0.7065                 0.7136
 IR Inten    --      0.1599                 0.1577                 0.2201

                     49                     50                     51
                      A                      A                      A
 Frequencies --    973.2350               973.3669               976.5489
 Red. masses --      1.3469                 1.3463                 1.3227
 Frc consts  --      0.7517                 0.7515                 0.7432
 IR Inten    --      0.0108                 0.0111                 0.4223

                     52                     53                     54
                      A                      A                      A
 Frequencies --   1027.9527              1028.0138              1029.6188
 Red. masses --      4.7557                 4.7628                 4.7002
 Frc consts  --      2.9608                 2.9656                 2.9357
 IR Inten    --     62.7175                62.6914                 5.1112

                     55                     56                     57
                      A                      A                      A
 Frequencies --   1097.7708              1097.8355              1101.5731
 Red. masses --      7.8924                 7.9250                 8.0667
 Frc consts  --      5.6038                 5.6276                 5.7673
 IR Inten    --     80.9870                81.6277                13.7589

                     58                     59                     60
                      A                      A                      A
 Frequencies --   1118.0928              1118.3316              1121.3247
 Red. masses --      2.1224                 2.1213                 2.1024
 Frc consts  --      1.5632                 1.5631                 1.5575
 IR Inten    --     33.0966                32.6325                 6.3531

                     61                     62                     63
                      A                      A                      A
 Frequencies --   1139.1226              1139.3846              1139.5458
 Red. masses --      1.4008                 1.4014                 1.4023
 Frc consts  --      1.0710                 1.0719                 1.0729
 IR Inten    --      0.4834                 0.1362                 3.4984

                     64                     65                     66
                      A                      A                      A
 Frequencies --   1218.8761              1219.3267              1220.8971
 Red. masses --      1.1567                 1.1573                 1.1518
 Frc consts  --      1.0125                 1.0137                 1.0115
 IR Inten    --      4.8016                 4.8383                 0.9371

                     67                     68                     69
                      A                      A                      A
 Frequencies --   1318.3195              1322.2125              1322.3109
 Red. masses --      6.9332                 7.5179                 7.6585
 Frc consts  --      7.0995                 7.7437                 7.8898
 IR Inten    --      1.3135                 2.6760                 2.6624

                     70                     71                     72
                      A                      A                      A
 Frequencies --   1336.9588              1337.4272              1337.7543
 Red. masses --      1.3399                 1.3306                 1.3498
 Frc consts  --      1.4111                 1.4023                 1.4232
 IR Inten    --      0.4492                 0.3355                 1.4989

                     73                     74                     75
                      A                      A                      A
 Frequencies --   1429.5466              1429.9052              1430.0281
 Red. masses --      2.6367                 2.6440                 2.6418
 Frc consts  --      3.1748                 3.1852                 3.1831
 IR Inten    --     18.8570                 6.9536                 6.0825

                     76                     77                     78
                      A                      A                      A
 Frequencies --   1526.9624              1527.1060              1527.1288
 Red. masses --      2.0817                 2.0921                 2.0766
 Frc consts  --      2.8597                 2.8746                 2.8534
 IR Inten    --     57.0294                20.7127                64.1516

                     79                     80                     81
                      A                      A                      A
 Frequencies --   1610.9906              1611.2060              1611.2668
 Red. masses --      6.6455                 6.6682                 6.6633
 Frc consts  --     10.1617                10.1991                10.1924
 IR Inten    --      3.8664                 3.8247                 3.7991

                     82                     83                     84
                      A                      A                      A
 Frequencies --   1633.3864              1633.4293              1634.4625
 Red. masses --      5.4338                 5.4276                 5.4943
 Frc consts  --      8.5414                 8.5321                 8.6479
 IR Inten    --     29.8338                29.7575                13.1132

                     85                     86                     87
                      A                      A                      A
 Frequencies --   3187.9997              3188.0485              3188.1665
 Red. masses --      1.0893                 1.0892                 1.0892
 Frc consts  --      6.5225                 6.5223                 6.5229
 IR Inten    --      6.1152                 3.0614                 3.4984

                     88                     89                     90
                      A                      A                      A
 Frequencies --   3205.5154              3205.8097              3206.3116
 Red. masses --      1.0879                 1.0878                 1.0879
 Frc consts  --      6.5859                 6.5869                 6.5894
 IR Inten    --      0.8586                 0.8669                 0.6659

                     91                     92                     93
                      A                      A                      A
 Frequencies --   3222.4889              3222.5905              3222.7338
 Red. masses --      1.0938                 1.0938                 1.0937
 Frc consts  --      6.6920                 6.6924                 6.6927
 IR Inten    --      2.7925                 3.1692                 8.5852

                     94                     95                     96
                      A                      A                      A
 Frequencies --   3223.5921              3223.6935              3223.9203
 Red. masses --      1.0939                 1.0939                 1.0941
 Frc consts  --      6.6974                 6.6979                 6.6999
 IR Inten    --      5.5963                 5.2963                 0.5315

 - Thermochemistry -
 -------------------
 Temperature   298.150 Kelvin.  Pressure   1.00000 Atm.
 Atom     1 has atomic number  6 and mass  12.00000

 Molecular mass:   363.97422 amu.
 Principal axes and moments of inertia in atomic units:
                           1         2         3
     Eigenvalues --  ******************************
           X            0.99982   0.01897   0.00000
           Y           -0.01897   0.99982   0.00000
           Z           -0.00000  -0.00000   1.00000
 This molecule is an asymmetric top.
 Rotational symmetry number  1.
 Warning -- assumption of classical behavior for rotation
           may cause significant error
 Rotational temperatures (Kelvin)      0.00723     0.00723     0.00405
 Rotational constants (GHZ):           0.15062     0.15059     0.08439
 Zero-point vibrational energy     643723.4 (Joules/Mol)
                                  153.85357 (Kcal/Mol)
 Warning -- explicit consideration of  30 degrees of freedom as
           vibrations may cause significant error
 Vibrational temperatures:     30.38    32.09    42.00    42.23    55.03
          (Kelvin)             57.20   157.25   169.09   169.52   260.55
                              269.72   269.96   379.88   422.44   422.59
                              447.28   472.87   473.18   552.54   552.59
                              596.53   596.71   599.62   614.35   718.58
                              732.94   733.11   764.87   789.67   789.74
                              927.08   927.11   928.45  1033.37  1033.50
                             1034.03  1073.52  1081.39  1081.48  1199.55
                             1200.11  1200.21  1216.94  1217.07  1221.40
                             1394.89  1395.05  1395.76  1400.27  1400.46
                             1405.04  1478.99  1479.08  1481.39  1579.45
                             1579.54  1584.92  1608.69  1609.03  1613.34
                             1638.94  1639.32  1639.55  1753.69  1754.34
                             1756.60  1896.77  1902.37  1902.51  1923.59
                             1924.26  1924.73  2056.80  2057.31  2057.49
                             2196.96  2197.16  2197.20  2317.86  2318.17
                             2318.25  2350.08  2350.14  2351.63  4586.82
                             4586.89  4587.06  4612.02  4612.45  4613.17
                             4636.44  4636.59  4636.80  4638.03  4638.18
                             4638.50

 Zero-point correction=                           0.245181 (Hartree/Particle)
 Thermal correction to Energy=                    0.264837
 Thermal correction to Enthalpy=                  0.265781
 Thermal correction to Gibbs Free Energy=         0.192183
 Sum of electronic and zero-point Energies=          -2414.841063
 Sum of electronic and thermal Energies=             -2414.821407
 Sum of electronic and thermal Enthalpies=           -2414.820463
 Sum of electronic and thermal Free Energies=        -2414.894062

                     E (Thermal)             CV                S
                      KCal/Mol        Cal/Mol-Kelvin    Cal/Mol-Kelvin
 Total                  166.188             74.124            154.902
 Electronic               0.000              0.000              0.000
 Translational            0.889              2.981             43.569
 Rotational               0.889              2.981             36.372
 Vibrational            164.410             68.163             74.961
 Vibration     1          0.593              1.985              6.527
 Vibration     2          0.593              1.985              6.417
 Vibration     3          0.593              1.984              5.884
 Vibration     4          0.593              1.984              5.873
 Vibration     5          0.594              1.982              5.348
 Vibration     6          0.594              1.981              5.271
 Vibration     7          0.606              1.942              3.281
 Vibration     8          0.608              1.935              3.141
 Vibration     9          0.608              1.935              3.136
 Vibration    10          0.630              1.865              2.317
 Vibration    11          0.632              1.857              2.253
 Vibration    12          0.632              1.857              2.251
 Vibration    13          0.671              1.739              1.635
 Vibration    14          0.688              1.686              1.453
 Vibration    15          0.689              1.685              1.452
 Vibration    16          0.700              1.653              1.358
 Vibration    17          0.712              1.618              1.267
 Vibration    18          0.712              1.618              1.266
 Vibration    19          0.753              1.504              1.023
 Vibration    20          0.753              1.504              1.023
 Vibration    21          0.778              1.439              0.910
 Vibration    22          0.778              1.438              0.910
 Vibration    23          0.780              1.434              0.903
 Vibration    24          0.789              1.411              0.869
 Vibration    25          0.855              1.251              0.660
 Vibration    26          0.865              1.229              0.635
 Vibration    27          0.865              1.229              0.635
 Vibration    28          0.887              1.180              0.584
 Vibration    29          0.904              1.142              0.547
 Vibration    30          0.904              1.142              0.546

                           ! Non-Optimized Parameters !
 Normal termination of Gaussian 16 at Sun Aug 23 05:28:06 2020.
 Gaussian 16:  ES64L-G16RevA.03 25-Dec-2016

 ----------------------------------------------------------------------
 # TD(NStates=10, Root=1) B3LYP/6-31G* scf=qc volume pop=NPA density=cu
 rrent Geom=AllCheck Guess=Read
 ----------------------------------------------------------------------

 Structure from the checkpoint file:  "phosphine_11_conf33.chk"
 -------------------
 Title Card Required
 -------------------
 Charge =  0 Multiplicity = 1

                         Standard orientation:
 ---------------------------------------------------------------------
 Center     Atomic      Atomic             Coordinates (Angstroms)
 Number     Number       Type             X           Y           Z
 ---------------------------------------------------------------------
      1          6           0        2.917013   -2.811304    0.853092
      2          6           0        2.137531   -1.779189    1.372178
      3          6           0        0.949550   -1.372510    0.742007
      4          6           0        0.548500   -2.048886   -0.419777
      5          6           0        1.311440   -3.092395   -0.945974
      6          6           0        2.493128   -3.461647   -0.305582
      7         17           0        3.459722   -4.773899   -0.963124
      8         15           0       -0.000168   -0.000102    1.546829
      9          6           0        0.713674    1.508553    0.741999
     10          6           0        0.473223    2.740615    1.372856
     11          6           0        0.977611    3.931605    0.853757
     12          6           0        1.751649    3.889640   -0.305657
     13          6           0        2.021385    2.681713   -0.946749
     14          6           0        1.498905    1.499369   -0.420501
     15         17           0        2.405075    5.382732   -0.963242
     16          6           0       -1.663591   -0.136182    0.742020
     17          6           0       -2.610071   -0.961125    1.372446
     18          6           0       -3.893678   -1.119876    0.853345
     19          6           0       -4.244651   -0.427922   -0.305604
     20          6           0       -3.333719    0.410295   -0.946259
     21          6           0       -2.048528    0.549024   -0.420046
     22         17           0       -5.864415   -0.608653   -0.963179
     23          1           0        3.834774   -3.116089    1.344777
     24          1           0        2.458804   -1.286090    2.286501
     25          1           0       -0.371250   -1.766786   -0.922922
     26          1           0        0.993432   -3.612653   -1.843483
     27          1           0       -0.113549    2.772292    2.287754
     28          1           0        0.783763    4.878735    1.345991
     29          1           0        2.630121    2.666399   -1.844815
     30          1           0        1.713503    0.561823   -0.924118
     31          1           0       -2.343873   -1.485654    2.286970
     32          1           0       -4.616759   -1.761854    1.345228
     33          1           0       -3.625049    0.945594   -1.843978
     34          1           0       -1.344097    1.204089   -0.923375
 ---------------------------------------------------------------------

 SCF Done:  E(RB3LYP) =  -2415.08624449     a.u. after    1 cycles

 Excitation energies and oscillator strengths:

 Excited State   1:      Singlet-A      4.4058 eV  281.41 nm  f=0.1834  <S**2>=0.000
      93 -> 94         0.69577
 This state for optimization and/or second-order correction.
 Total Energy, E(TD-HF/TD-DFT) =  -2414.92433562
 Copying the excited state density for this state as the 1-particle RhoCI density.

 Excited State   2:      Singlet-A      4.4061 eV  281.39 nm  f=0.1836  <S**2>=0.000
      93 -> 95         0.69577

 Excited State   3:      Singlet-A      4.6122 eV  268.82 nm  f=0.0036  <S**2>=0.000
      89 -> 94        -0.10982
      90 -> 95        -0.10992
      93 -> 96         0.67969

 Excited State   4:      Singlet-A      4.9175 eV  252.13 nm  f=0.0001  <S**2>=0.000
      88 -> 94         0.11594
      89 -> 95        -0.10023
      90 -> 94        -0.10015
      93 -> 98         0.64469

 Excited State   5:      Singlet-A      4.9176 eV  252.12 nm  f=0.0001  <S**2>=0.000
      88 -> 95         0.11598
      89 -> 94        -0.10028
      90 -> 95         0.10029
      93 -> 99         0.64460

 Excited State   6:      Singlet-A      5.0223 eV  246.87 nm  f=0.0089  <S**2>=0.000
      91 -> 94         0.11471
      92 -> 95         0.11481
      93 -> 97         0.66880

 Excited State   7:      Singlet-A      5.2593 eV  235.74 nm  f=0.0017  <S**2>=0.000
      89 -> 94         0.13151
      90 -> 95         0.13094
      91 -> 94         0.25314
      91 -> 95        -0.36494
      91 -> 98         0.12339
      92 -> 94         0.36568
      92 -> 95         0.25316
      92 -> 99         0.12297
      93 -> 96         0.10404

 Excited State   8:      Singlet-A      5.3615 eV  231.25 nm  f=0.0051  <S**2>=0.000
      88 -> 94        -0.19110
      89 -> 95         0.18836
      89 -> 97         0.11254
      90 -> 94         0.18838
      91 -> 94         0.12967
      91 -> 96         0.37064
      91 -> 98         0.13300
      92 -> 95        -0.13009
      92 -> 96        -0.24055
      92 -> 99        -0.13298
      93 -> 98         0.22686

 Excited State   9:      Singlet-A      5.3617 eV  231.24 nm  f=0.0051  <S**2>=0.000
      88 -> 95        -0.19085
      89 -> 94         0.18829
      90 -> 95        -0.18815
      90 -> 97         0.11254
      91 -> 95        -0.12885
      91 -> 96         0.24017
      91 -> 99        -0.13259
      92 -> 94        -0.12997
      92 -> 96         0.37119
      92 -> 98        -0.13301
      93 -> 99         0.22702

 Excited State  10:      Singlet-A      5.4213 eV  228.70 nm  f=0.1615  <S**2>=0.000
      91 -> 94        -0.10151
      91 -> 95         0.45231
      92 -> 94         0.45265
      92 -> 95         0.10077
      92 -> 96         0.13673

 The electronic state is 1-A.
 Alpha  occ. eigenvalues -- -101.55492-101.55492-101.55492 -77.10093 -10.26328
 Alpha  occ. eigenvalues --  -10.26328 -10.26328 -10.21418 -10.21417 -10.21417
 Alpha  occ. eigenvalues --  -10.21367 -10.21367 -10.21366 -10.21346 -10.21346
 Alpha  occ. eigenvalues --  -10.21346 -10.21312 -10.21312 -10.21312 -10.21248
 Alpha  occ. eigenvalues --  -10.21248 -10.21248  -9.47124  -9.47124  -9.47124
 Alpha  occ. eigenvalues --   -7.23519  -7.23519  -7.23519  -7.22554  -7.22554
 Alpha  occ. eigenvalues --   -7.22554  -7.22517  -7.22517  -7.22517  -6.56808
 Alpha  occ. eigenvalues --   -4.73069  -4.73069  -4.72564  -0.89964  -0.89791
 Alpha  occ. eigenvalues --   -0.89791  -0.85153  -0.84236  -0.84236  -0.76898
 Alpha  occ. eigenvalues --   -0.76780  -0.76780  -0.76742  -0.73906  -0.73906
 Alpha  occ. eigenvalues --   -0.65057  -0.63151  -0.62986  -0.62986  -0.60496
 Alpha  occ. eigenvalues --   -0.60496  -0.57615  -0.52431  -0.52431  -0.49747
 Alpha  occ. eigenvalues --   -0.48088  -0.47998  -0.47998  -0.47167  -0.47166
 Alpha  occ. eigenvalues --   -0.46321  -0.44340  -0.44245  -0.44245  -0.42725
 Alpha  occ. eigenvalues --   -0.42724  -0.40319  -0.40238  -0.40238  -0.39580
 Alpha  occ. eigenvalues --   -0.37219  -0.37219  -0.37129  -0.35190  -0.35189
 Alpha  occ. eigenvalues --   -0.34134  -0.33459  -0.33459  -0.31867  -0.31862
 Alpha  occ. eigenvalues --   -0.31862  -0.27682  -0.27412  -0.27142  -0.27142
 Alpha  occ. eigenvalues --   -0.25829  -0.25828  -0.22677
 Alpha virt. eigenvalues --   -0.03958  -0.03957  -0.03031  -0.01963  -0.01787
 Alpha virt. eigenvalues --   -0.01786   0.02243   0.02243   0.02402   0.05593
 Alpha virt. eigenvalues --    0.05596   0.10343   0.12153   0.12345   0.12346

 Mulliken charges:
               1
     1  C   -0.117305
     2  C   -0.153924
     3  C   -0.077965
     4  C   -0.150885
     5  C   -0.115138
     6  C   -0.064109
     7  Cl   0.015174
     8  P    0.446593
     9  C   -0.119381
    10  C   -0.161961
    11  C   -0.125987
    12  C   -0.098367
    13  C   -0.115106
    14  C   -0.174934
    15  Cl  -0.040852
    16  C   -0.118260
    17  C   -0.173422
    18  C   -0.116355
    19  C   -0.088485
    20  C   -0.122071
    21  C   -0.158421
    22  Cl  -0.023569
    23  H    0.170414
    24  H    0.162641
    25  H    0.178954
    26  H    0.173610
    27  H    0.133535
    28  H    0.146379
    29  H    0.148451
    30  H    0.131444
    31  H    0.136603
    32  H    0.152355
    33  H    0.156985
    34  H    0.163358
 Sum of Mulliken charges =  -0.00000

 Dipole moment (field-independent basis, Debye):
    X=              1.2848    Y=             -3.9796    Z=              1.9726  Tot=              4.6237
 Quadrupole moment (field-independent basis, Debye-Ang):
   XX=           -167.7503   YY=           -167.3766   ZZ=           -145.0253
   XY=             -8.9378   XZ=              0.4504   YZ=              0.9207

 Summary of Natural Population Analysis:

                                       Natural Population
                Natural  -----------------------------------------------
    Atom  No    Charge         Core      Valence    Rydberg      Total
 -----------------------------------------------------------------------
      C    1   -0.24853      1.99893     4.23408    0.01552     6.24853
      C    2   -0.18775      1.99902     4.17368    0.01505     6.18775
      C    3   -0.37513      1.99890     4.35176    0.02446     6.37513
      C    4   -0.20087      1.99900     4.18578    0.01609     6.20087
      C    5   -0.23826      1.99892     4.22417    0.01517     6.23826
      C    6   -0.01647      1.99855     3.99566    0.02226     6.01647
     Cl    7    0.02766      9.99967     6.95338    0.01930    16.97234
      P    8    1.21215      9.99758     3.74042    0.04985    13.78785
      C    9   -0.46510      1.99886     4.44171    0.02453     6.46510
      C   10   -0.20663      1.99901     4.19175    0.01587     6.20663
      C   11   -0.26480      1.99894     4.24922    0.01664     6.26480
      C   12   -0.08684      1.99854     4.06609    0.02220     6.08684
      C   13   -0.23826      1.99893     4.22368    0.01564     6.23826
      C   14   -0.25386      1.99899     4.23722    0.01766     6.25386
     Cl   15   -0.01450      9.99967     6.99441    0.02041    17.01450
      C   16   -0.45480      1.99888     4.42971    0.02621     6.45480
      C   17   -0.22225      1.99902     4.20724    0.01599     6.22225
      C   18   -0.24702      1.99894     4.23237    0.01572     6.24702
      C   19   -0.06631      1.99854     4.04549    0.02228     6.06631
      C   20   -0.25060      1.99893     4.23572    0.01595     6.25060
      C   21   -0.21439      1.99899     4.19843    0.01697     6.21439
     Cl   22   -0.00125      9.99967     6.98142    0.02015    17.00125
      H   23    0.26145      0.00000     0.73750    0.00105     0.73855
      H   24    0.25095      0.00000     0.74786    0.00119     0.74905
      H   25    0.26387      0.00000     0.73495    0.00118     0.73613
      H   26    0.26326      0.00000     0.73569    0.00105     0.73674
      H   27    0.23597      0.00000     0.76299    0.00104     0.76403
      H   28    0.25050      0.00000     0.74846    0.00103     0.74950
      H   29    0.25142      0.00000     0.74753    0.00105     0.74858
      H   30    0.23717      0.00000     0.76145    0.00138     0.76283
      H   31    0.23631      0.00000     0.76274    0.00096     0.76369
      H   32    0.25255      0.00000     0.74636    0.00109     0.74745
      H   33    0.25567      0.00000     0.74327    0.00106     0.74433
      H   34    0.25470      0.00000     0.74382    0.00148     0.74530
 =======================================================================
   * Total *   -0.00000     75.97648   109.56602    0.45750   186.00000

 Normal termination of Gaussian 16 at Sun Aug 23 05:48:18 2020.
