 Gaussian 16, Revision A.03,

 ---------------------------------
 # opt=CalcAll B3LYP/6-31G* scf=qc
 ---------------------------------

 -------------------
 Title Card Required
 -------------------
 Symbolic Z-matrix:
 Charge =  0 Multiplicity = 1

 SCF Done:  E(RB3LYP) =  -1036.28038139     a.u. after    8 cycles
 SCF Done:  E(RB3LYP) =  -1036.28382782     a.u. after   17 cycles
 SCF Done:  E(RB3LYP) =  -1036.29581923     a.u. after   17 cycles
 SCF Done:  E(RB3LYP) =  -1036.29726099     a.u. after   17 cycles
 SCF Done:  E(RB3LYP) =  -1036.29770737     a.u. after   13 cycles
 SCF Done:  E(RB3LYP) =  -1036.29799611     a.u. after   13 cycles
 SCF Done:  E(RB3LYP) =  -1036.29819507     a.u. after   13 cycles
 SCF Done:  E(RB3LYP) =  -1036.29823754     a.u. after   11 cycles
 SCF Done:  E(RB3LYP) =  -1036.29822884     a.u. after    4 cycles
 SCF Done:  E(RB3LYP) =  -1036.29823334     a.u. after    4 cycles
 SCF Done:  E(RB3LYP) =  -1036.29823478     a.u. after    2 cycles
 SCF Done:  E(RB3LYP) =  -1036.29823074     a.u. after    2 cycles
 SCF Done:  E(RB3LYP) =  -1036.29823501     a.u. after    2 cycles
 SCF Done:  E(RB3LYP) =  -1036.29823337     a.u. after    2 cycles
 Optimization completed.
    -- Stationary point found.
 Normal termination of Gaussian 16 at Sun Aug 23 04:25:52 2020.

 ----------------------------------------------------------------------
 # freq B3LYP/6-31G* scf=qc volume NMR pop=NPA density=current Geom=All
 Check Guess=Read
 ----------------------------------------------------------------------

 Structure from the checkpoint file:  "phosphine_1_conf202.chk"
 -------------------
 Title Card Required
 -------------------
 Charge =  0 Multiplicity = 1

 SCF Done:  E(RB3LYP) =  -1036.29823337     a.u. after    1 cycles

      1  C    Isotropic =    68.1705   Anisotropy =   167.3321

      2  C    Isotropic =    68.7244   Anisotropy =   164.1176

      3  C    Isotropic =    61.0176   Anisotropy =   164.0950

      4  C    Isotropic =    56.0657   Anisotropy =   179.4780

      5  C    Isotropic =    62.5911   Anisotropy =   174.0045

      6  C    Isotropic =    68.6834   Anisotropy =   163.8856

      7  P    Isotropic =   361.4524   Anisotropy =    39.7987

      8  C    Isotropic =    56.1854   Anisotropy =   179.4498

      9  C    Isotropic =    62.5423   Anisotropy =   174.1407

     10  C    Isotropic =    68.6851   Anisotropy =   163.9007

     11  C    Isotropic =    68.1449   Anisotropy =   167.3521

     12  C    Isotropic =    68.7220   Anisotropy =   164.1082

     13  C    Isotropic =    60.9749   Anisotropy =   164.0791

     14  C    Isotropic =    56.1218   Anisotropy =   179.4021

     15  C    Isotropic =    61.0247   Anisotropy =   164.1533

     16  C    Isotropic =    68.7266   Anisotropy =   164.1310

     17  C    Isotropic =    68.1823   Anisotropy =   167.3233

     18  C    Isotropic =    68.6798   Anisotropy =   163.8829

     19  C    Isotropic =    62.6136   Anisotropy =   174.0358

     20  H    Isotropic =    25.0207   Anisotropy =     3.6404

     21  H    Isotropic =    24.9299   Anisotropy =     4.5877

     22  H    Isotropic =    24.6147   Anisotropy =     9.2554

     23  H    Isotropic =    25.3988   Anisotropy =    12.2175

     24  H    Isotropic =    25.0472   Anisotropy =     6.0849

     25  H    Isotropic =    25.3910   Anisotropy =    12.2116

     26  H    Isotropic =    25.0472   Anisotropy =     6.0849

     27  H    Isotropic =    25.0200   Anisotropy =     3.6421

     28  H    Isotropic =    24.9276   Anisotropy =     4.5829

     29  H    Isotropic =    24.6094   Anisotropy =     9.2376

     30  H    Isotropic =    24.6147   Anisotropy =     9.2644

     31  H    Isotropic =    24.9257   Anisotropy =     4.5924

     32  H    Isotropic =    25.0204   Anisotropy =     3.6421

     33  H    Isotropic =    25.0486   Anisotropy =     6.0862

     34  H    Isotropic =    25.4004   Anisotropy =    12.2364

  Exact polarizability: 224.186  -0.135 223.990   0.135   0.062 165.144
 Approx polarizability: 330.961  -0.320 330.605   0.317   0.140 308.248

                      1                      2                      3
                      A                      A                      A
 Frequencies --     22.9739                24.3683                38.6095
 Red. masses --      3.7970                 3.7959                 3.6902
 Frc consts  --      0.0012                 0.0013                 0.0032
 IR Inten    --      0.2824                 0.2814                 0.0028

                      4                      5                      6
                      A                      A                      A
 Frequencies --     53.2518                53.4364                70.5692
 Red. masses --      5.2532                 5.2534                 5.1670
 Frc consts  --      0.0088                 0.0088                 0.0152
 IR Inten    --      0.0835                 0.0872                 0.3093

                      7                      8                      9
                      A                      A                      A
 Frequencies --    181.4600               202.1032               202.8950
 Red. masses --      4.5616                 4.6429                 4.6422
 Frc consts  --      0.0885                 0.1117                 0.1126
 IR Inten    --      0.3532                 1.1333                 1.1406

                     10                     11                     12
                      A                      A                      A
 Frequencies --    245.5325               259.7277               259.9020
 Red. masses --      5.7399                 4.7211                 4.7204
 Frc consts  --      0.2039                 0.1876                 0.1879
 IR Inten    --      0.4812                 0.2232                 0.2269

                     13                     14                     15
                      A                      A                      A
 Frequencies --    408.7369               408.9015               412.3597
 Red. masses --      3.0774                 3.0806                 3.5757
 Frc consts  --      0.3029                 0.3035                 0.3582
 IR Inten    --      1.9600                 1.9689                 0.1571

                     16                     17                     18
                      A                      A                      A
 Frequencies --    417.1848               429.4180               429.5536
 Red. masses --      4.6454                 7.3302                 7.2948
 Frc consts  --      0.4764                 0.7964                 0.7930
 IR Inten    --      0.5675                 7.7260                 7.7052

                     19                     20                     21
                      A                      A                      A
 Frequencies --    509.3755               509.6710               516.3921
 Red. masses --      4.2484                 4.2428                 4.5902
 Frc consts  --      0.6495                 0.6494                 0.7212
 IR Inten    --     26.1506                26.1551                11.9502

                     22                     23                     24
                      A                      A                      A
 Frequencies --    632.7120               632.7245               633.3569
 Red. masses --      6.4270                 6.4275                 6.4370
 Frc consts  --      1.5159                 1.5161                 1.5214
 IR Inten    --      0.1798                 0.1800                 0.0161

                     25                     26                     27
                      A                      A                      A
 Frequencies --    691.8894               705.1392               705.2689
 Red. masses --      6.5801                 5.7233                 5.7441
 Frc consts  --      1.8559                 1.6767                 1.6834
 IR Inten    --      0.7902                 1.1643                 1.0838

                     28                     29                     30
                      A                      A                      A
 Frequencies --    712.2105               712.3603               713.3365
 Red. masses --      2.2035                 2.1939                 2.1346
 Frc consts  --      0.6585                 0.6559                 0.6400
 IR Inten    --     26.3073                26.4284                16.7155

                     31                     32                     33
                      A                      A                      A
 Frequencies --    761.4077               762.8566               762.9926
 Red. masses --      1.6154                 1.6474                 1.6497
 Frc consts  --      0.5518                 0.5648                 0.5658
 IR Inten    --     19.1556                24.9737                24.8196

                     34                     35                     36
                      A                      A                      A
 Frequencies --    866.1326               866.2925               868.7883
 Red. masses --      1.2478                 1.2477                 1.2462
 Frc consts  --      0.5515                 0.5517                 0.5542
 IR Inten    --      0.2249                 0.2199                 0.1311

                     37                     38                     39
                      A                      A                      A
 Frequencies --    932.8757               933.0743               934.3159
 Red. masses --      1.3443                 1.3440                 1.3385
 Frc consts  --      0.6893                 0.6894                 0.6884
 IR Inten    --      1.2646                 1.2205                 0.0668

                     40                     41                     42
                      A                      A                      A
 Frequencies --    975.7349               975.9151               977.6942
 Red. masses --      1.3613                 1.3611                 1.3555
 Frc consts  --      0.7636                 0.7638                 0.7634
 IR Inten    --      0.0163                 0.0161                 0.1384

                     43                     44                     45
                      A                      A                      A
 Frequencies --   1000.3364              1000.4267              1001.1359
 Red. masses --      1.2543                 1.2542                 1.2525
 Frc consts  --      0.7395                 0.7396                 0.7396
 IR Inten    --      0.0799                 0.0792                 0.0018

                     46                     47                     48
                      A                      A                      A
 Frequencies --   1015.3456              1015.3722              1015.7494
 Red. masses --      6.3114                 6.3114                 6.3098
 Frc consts  --      3.8335                 3.8338                 3.8357
 IR Inten    --      4.3628                 4.3533                 0.0640

                     49                     50                     51
                      A                      A                      A
 Frequencies --   1052.7002              1052.7582              1052.9253
 Red. masses --      3.3113                 3.3197                 3.2542
 Frc consts  --      2.1620                 2.1678                 2.1256
 IR Inten    --      2.1103                 2.0550                 0.0398

                     52                     53                     54
                      A                      A                      A
 Frequencies --   1107.7569              1108.2744              1109.4932
 Red. masses --      1.8894                 1.8392                 1.6554
 Frc consts  --      1.3661                 1.3310                 1.2006
 IR Inten    --      4.3517                 3.5173                 2.8447

                     55                     56                     57
                      A                      A                      A
 Frequencies --   1110.7724              1110.9196              1116.1607
 Red. masses --      2.1835                 2.2536                 2.6132
 Frc consts  --      1.5873                 1.6386                 1.9181
 IR Inten    --      9.2900                10.1362                 1.2510

                     58                     59                     60
                      A                      A                      A
 Frequencies --   1193.5183              1193.9191              1193.9894
 Red. masses --      1.1034                 1.1000                 1.1001
 Frc consts  --      0.9260                 0.9238                 0.9240
 IR Inten    --      0.0021                 0.1345                 0.1228

                     61                     62                     63
                      A                      A                      A
 Frequencies --   1219.1619              1219.6500              1220.9226
 Red. masses --      1.1475                 1.1478                 1.1474
 Frc consts  --      1.0049                 1.0060                 1.0077
 IR Inten    --      6.0216                 5.9296                 0.5305

                     64                     65                     66
                      A                      A                      A
 Frequencies --   1325.0396              1328.6970              1328.9399
 Red. masses --      3.4975                 3.4873                 3.5357
 Frc consts  --      3.6180                 3.6274                 3.6790
 IR Inten    --      2.6360                 2.4546                 2.4331

                     67                     68                     69
                      A                      A                      A
 Frequencies --   1365.0906              1365.4182              1365.8762
 Red. masses --      1.6590                 1.6500                 1.6349
 Frc consts  --      1.8214                 1.8124                 1.7971
 IR Inten    --      0.2694                 1.2434                 1.8934

                     70                     71                     72
                      A                      A                      A
 Frequencies --   1480.5267              1480.9792              1481.0390
 Red. masses --      2.1106                 2.1154                 2.1156
 Frc consts  --      2.7258                 2.7337                 2.7341
 IR Inten    --     16.5476                 6.6951                 6.6286

                     73                     74                     75
                      A                      A                      A
 Frequencies --   1531.1134              1531.5568              1531.7392
 Red. masses --      2.0149                 1.9988                 1.9966
 Frc consts  --      2.7830                 2.7624                 2.7599
 IR Inten    --      2.0788                10.1764                10.0662

                     76                     77                     78
                      A                      A                      A
 Frequencies --   1630.1617              1630.4115              1630.4918
 Red. masses --      5.1004                 5.1129                 5.1098
 Frc consts  --      7.9857                 8.0077                 8.0036
 IR Inten    --      0.3886                 0.0485                 0.0532

                     79                     80                     81
                      A                      A                      A
 Frequencies --   1646.1833              1646.2116              1647.9934
 Red. masses --      5.2714                 5.2684                 5.2817
 Frc consts  --      8.4165                 8.4121                 8.4515
 IR Inten    --      3.5421                 3.4728                 0.3204

                     82                     83                     84
                      A                      A                      A
 Frequencies --   3176.0908              3176.1638              3176.1764
 Red. masses --      1.0854                 1.0853                 1.0853
 Frc consts  --      6.4507                 6.4509                 6.4509
 IR Inten    --      2.0998                 2.1064                 1.7668

                     85                     86                     87
                      A                      A                      A
 Frequencies --   3182.6582              3182.6941              3182.7583
 Red. masses --      1.0875                 1.0875                 1.0876
 Frc consts  --      6.4901                 6.4904                 6.4912
 IR Inten    --      0.7541                 0.7992                 0.1473

                     88                     89                     90
                      A                      A                      A
 Frequencies --   3192.8405              3192.8598              3192.9845
 Red. masses --      1.0916                 1.0916                 1.0917
 Frc consts  --      6.5566                 6.5567                 6.5578
 IR Inten    --     10.2897                10.0314                47.5053

                     91                     92                     93
                      A                      A                      A
 Frequencies --   3203.8386              3203.8779              3204.2678
 Red. masses --      1.0940                 1.0941                 1.0942
 Frc consts  --      6.6164                 6.6168                 6.6191
 IR Inten    --     40.6960                41.0210                 4.7978

                     94                     95                     96
                      A                      A                      A
 Frequencies --   3209.9564              3210.0231              3210.9034
 Red. masses --      1.0958                 1.0957                 1.0957
 Frc consts  --      6.6524                 6.6523                 6.6557
 IR Inten    --     20.8037                20.5004                16.2443

 - Thermochemistry -
 -------------------
 Temperature   298.150 Kelvin.  Pressure   1.00000 Atm.
 Atom     1 has atomic number  6 and mass  12.00000

 Molecular mass:   262.09114 amu.
 Principal axes and moments of inertia in atomic units:
                           1         2         3
     Eigenvalues --  5161.575335165.797088680.70681
           X            0.99932  -0.03678   0.00003
           Y            0.03678   0.99932   0.00002
           Z           -0.00004  -0.00002   1.00000
 This molecule is an asymmetric top.
 Rotational symmetry number  1.
 Warning -- assumption of classical behavior for rotation
           may cause significant error
 Rotational temperatures (Kelvin)      0.01678     0.01677     0.00998
 Rotational constants (GHZ):           0.34965     0.34936     0.20790
 Zero-point vibrational energy     719974.6 (Joules/Mol)
                                  172.07806 (Kcal/Mol)
 Warning -- explicit consideration of  21 degrees of freedom as
           vibrations may cause significant error
 Vibrational temperatures:     33.05    35.06    55.55    76.62    76.88
          (Kelvin)            101.53   261.08   290.78   291.92   353.27
                              373.69   373.94   588.08   588.32   593.29
                              600.24   617.84   618.03   732.88   733.30
                              742.97   910.33   910.35   911.26   995.47
                             1014.54  1014.72  1024.71  1024.93  1026.33
                             1095.50  1097.58  1097.78  1246.17  1246.40
                             1249.99  1342.20  1342.49  1344.27  1403.86
                             1404.12  1406.68  1439.26  1439.39  1440.41
                             1460.86  1460.89  1461.44  1514.60  1514.68
                             1514.92  1593.82  1594.56  1596.31  1598.15
                             1598.37  1605.91  1717.21  1717.78  1717.88
                             1754.10  1754.80  1756.64  1906.44  1911.70
                             1912.05  1964.06  1964.53  1965.19  2130.15
                             2130.80  2130.88  2202.93  2203.57  2203.83
                             2345.44  2345.80  2345.91  2368.49  2368.53
                             2371.09  4569.69  4569.79  4569.81  4579.14
                             4579.19  4579.28  4593.79  4593.81  4593.99
                             4609.61  4609.67  4610.23  4618.41  4618.51
                             4619.77

 Zero-point correction=                           0.274224 (Hartree/Particle)
 Thermal correction to Energy=                    0.290143
 Thermal correction to Enthalpy=                  0.291087
 Thermal correction to Gibbs Free Energy=         0.227791
 Sum of electronic and zero-point Energies=          -1036.024010
 Sum of electronic and thermal Energies=             -1036.008090
 Sum of electronic and thermal Enthalpies=           -1036.007146
 Sum of electronic and thermal Free Energies=        -1036.070442

                     E (Thermal)             CV                S
                      KCal/Mol        Cal/Mol-Kelvin    Cal/Mol-Kelvin
 Total                  182.068             62.536            133.218
 Electronic               0.000              0.000              0.000
 Translational            0.889              2.981             42.590
 Rotational               0.889              2.981             33.803
 Vibrational            180.290             56.574             56.825
 Vibration     1          0.593              1.985              6.359
 Vibration     2          0.593              1.985              6.242
 Vibration     3          0.594              1.981              5.329
 Vibration     4          0.596              1.976              4.693
 Vibration     5          0.596              1.976              4.686
 Vibration     6          0.598              1.968              4.137
 Vibration     7          0.630              1.865              2.313
 Vibration     8          0.639              1.837              2.114
 Vibration     9          0.639              1.836              2.107
 Vibration    10          0.660              1.770              1.762
 Vibration    11          0.668              1.746              1.664
 Vibration    12          0.668              1.746              1.662
 Vibration    13          0.773              1.451              0.931
 Vibration    14          0.773              1.451              0.931
 Vibration    15          0.776              1.443              0.918
 Vibration    16          0.780              1.433              0.902
 Vibration    17          0.791              1.406              0.861
 Vibration    18          0.791              1.406              0.860
 Vibration    19          0.865              1.229              0.635
 Vibration    20          0.865              1.229              0.634
 Vibration    21          0.871              1.214              0.618

                           ! Non-Optimized Parameters !
 Normal termination of Gaussian 16 at Sun Aug 23 04:35:02 2020.
 Gaussian 16:  ES64L-G16RevA.03 25-Dec-2016

 ----------------------------------------------------------------------
 # TD(NStates=10, Root=1) B3LYP/6-31G* scf=qc volume pop=NPA density=cu
 rrent Geom=AllCheck Guess=Read
 ----------------------------------------------------------------------

 Structure from the checkpoint file:  "phosphine_1_conf203.chk"
 -------------------
 Title Card Required
 -------------------
 Charge =  0 Multiplicity = 1

                         Standard orientation:
 ---------------------------------------------------------------------
 Center     Atomic      Atomic             Coordinates (Angstroms)
 Number     Number       Type             X           Y           Z
 ---------------------------------------------------------------------
      1          6           0        0.179845   -4.276202    0.652056
      2          6           0       -0.553832   -4.010046   -0.505982
      3          6           0       -0.582880   -2.718881   -1.032406
      4          6           0        0.103819   -1.667175   -0.402309
      5          6           0        0.839391   -1.948457    0.759140
      6          6           0        0.878284   -3.243755    1.280028
      7         15           0        0.000034    0.000401   -1.206169
      8          6           0       -1.495990    0.743933   -0.402116
      9          6           0       -2.102450    0.251516    0.763637
     10          6           0       -3.244283    0.864199    1.284558
     11          6           0       -3.794950    1.980005    0.652218
     12          6           0       -3.202524    2.478438   -0.509995
     13          6           0       -2.068983    1.859313   -1.036301
     14          6           0        1.392696    0.923830   -0.402694
     15          6           0        2.647604    0.851472   -1.031006
     16          6           0        3.751349    1.522734   -0.505494
     17          6           0        3.614460    2.295343    0.649746
     18          6           0        2.370467    2.387464    1.275861
     19          6           0        1.268010    1.705580    0.755959
     20          1           0        0.212281   -5.283682    1.058533
     21          1           0       -1.094505   -4.809804   -1.005562
     22          1           0       -1.140340   -2.523488   -1.945740
     23          1           0        1.387308   -1.154028    1.256878
     24          1           0        1.455285   -3.444871    2.179242
     25          1           0       -1.684151   -0.616155    1.264951
     26          1           0       -3.703084    0.468106    2.187094
     27          1           0       -4.684266    2.454625    1.058602
     28          1           0       -3.629172    3.342475   -1.012921
     29          1           0       -1.624770    2.241312   -1.952745
     30          1           0        2.757806    0.267630   -1.942107
     31          1           0        4.714841    1.451548   -1.003636
     32          1           0        4.470850    2.827605    1.055437
     33          1           0        2.255634    2.990996    2.172814
     34          1           0        0.305571    1.785860    1.252280
 ---------------------------------------------------------------------

 SCF Done:  E(RB3LYP) =  -1036.29823337     a.u. after    1 cycles

 Excitation energies and oscillator strengths:

 Excited State   1:      Singlet-A      4.5083 eV  275.01 nm  f=0.1269  <S**2>=0.000
      69 -> 70         0.69696
 This state for optimization and/or second-order correction.
 Total Energy, E(TD-HF/TD-DFT) =  -1036.13255701
 Copying the excited state density for this state as the 1-particle RhoCI density.

 Excited State   2:      Singlet-A      4.5128 eV  274.74 nm  f=0.1287  <S**2>=0.000
      69 -> 71         0.69689

 Excited State   3:      Singlet-A      4.7582 eV  260.57 nm  f=0.0022  <S**2>=0.000
      67 -> 70         0.12364
      68 -> 71         0.12447
      69 -> 72         0.67457

 Excited State   4:      Singlet-A      5.0574 eV  245.16 nm  f=0.0002  <S**2>=0.000
      66 -> 70        -0.16467
      67 -> 70        -0.13142
      68 -> 71         0.13058
      69 -> 74         0.62969

 Excited State   5:      Singlet-A      5.0590 eV  245.08 nm  f=0.0002  <S**2>=0.000
      66 -> 71        -0.16579
      67 -> 71         0.13270
      68 -> 70         0.13248
      69 -> 75         0.62881

 Excited State   6:      Singlet-A      5.1516 eV  240.67 nm  f=0.0085  <S**2>=0.000
      69 -> 73         0.67898

 Excited State   7:      Singlet-A      5.4270 eV  228.46 nm  f=0.0146  <S**2>=0.000
      63 -> 72        -0.16608
      64 -> 74        -0.14724
      65 -> 75         0.14295
      67 -> 70         0.42746
      68 -> 71         0.41385
      69 -> 72        -0.16545

 Excited State   8:      Singlet-A      5.5134 eV  224.88 nm  f=0.0005  <S**2>=0.000
      63 -> 74         0.14317
      64 -> 71        -0.10468
      64 -> 72         0.22510
      64 -> 75        -0.10018
      65 -> 70         0.10913
      65 -> 72        -0.17004
      66 -> 70         0.22748
      67 -> 70         0.26020
      68 -> 71        -0.27982
      68 -> 72        -0.16273
      69 -> 74         0.28543

 Excited State   9:      Singlet-A      5.5154 eV  224.80 nm  f=0.0004  <S**2>=0.000
      63 -> 75         0.14402
      64 -> 70        -0.10364
      64 -> 72        -0.17082
      65 -> 71        -0.10326
      65 -> 72        -0.22524
      66 -> 71         0.22483
      67 -> 71        -0.26737
      67 -> 72         0.16391
      68 -> 70        -0.27775
      69 -> 75         0.28722

 Excited State  10:      Singlet-A      5.6179 eV  220.70 nm  f=0.0009  <S**2>=0.000
      67 -> 71        -0.47339
      68 -> 70         0.48845

 The electronic state is 1-A.
 Alpha  occ. eigenvalues --  -77.08111 -10.19448 -10.19446 -10.19445 -10.19151
 Alpha  occ. eigenvalues --  -10.19145 -10.19142 -10.19120 -10.19115 -10.19114
 Alpha  occ. eigenvalues --  -10.19034 -10.19030 -10.19028 -10.19010 -10.19006
 Alpha  occ. eigenvalues --  -10.19004 -10.18966 -10.18961 -10.18959  -6.54842
 Alpha  occ. eigenvalues --   -4.71101  -4.71101  -4.70600  -0.85559  -0.84847
 Alpha  occ. eigenvalues --   -0.84843  -0.76668  -0.74366  -0.74365  -0.74329
 Alpha  occ. eigenvalues --   -0.73822  -0.73820  -0.64436  -0.60338  -0.60307
 Alpha  occ. eigenvalues --   -0.60304  -0.59207  -0.59206  -0.55448  -0.51436
 Alpha  occ. eigenvalues --   -0.51434  -0.49296  -0.45440  -0.45438  -0.44775
 Alpha  occ. eigenvalues --   -0.44344  -0.44343  -0.44068  -0.41947  -0.41869
 Alpha  occ. eigenvalues --   -0.41867  -0.40380  -0.40375  -0.36843  -0.36355
 Alpha  occ. eigenvalues --   -0.36348  -0.35897  -0.34253  -0.34250  -0.34224
 Alpha  occ. eigenvalues --   -0.31885  -0.31883  -0.26771  -0.25452  -0.25442
 Alpha  occ. eigenvalues --   -0.25241  -0.24705  -0.24703  -0.21146
 Alpha virt. eigenvalues --   -0.01887  -0.01875  -0.00827   0.00174   0.00423
 Alpha virt. eigenvalues --    0.00432   0.06876   0.06897   0.09491   0.11038
 Alpha virt. eigenvalues --    0.11041   0.13900   0.14528   0.14531   0.15166

 Mulliken charges:
               1
     1  C   -0.135943
     2  C   -0.123890
     3  C   -0.152759
     4  C   -0.090076
     5  C   -0.161893
     6  C   -0.115844
     7  P    0.450670
     8  C   -0.134205
     9  C   -0.174580
    10  C   -0.119415
    11  C   -0.170186
    12  C   -0.122576
    13  C   -0.173046
    14  C   -0.096590
    15  C   -0.166445
    16  C   -0.116637
    17  C   -0.130028
    18  C   -0.122752
    19  C   -0.149297
    20  H    0.134998
    21  H    0.135243
    22  H    0.142095
    23  H    0.149542
    24  H    0.137664
    25  H    0.125274
    26  H    0.115521
    27  H    0.105766
    28  H    0.111840
    29  H    0.111710
    30  H    0.140254
    31  H    0.137437
    32  H    0.139779
    33  H    0.142500
    34  H    0.175869
 Sum of Mulliken charges =  -0.00000

 Dipole moment (field-independent basis, Debye):
    X=              3.5881    Y=             -1.2424    Z=             -0.1983  Tot=              3.8023
 Quadrupole moment (field-independent basis, Debye-Ang):
   XX=           -116.7931   YY=           -110.2840   ZZ=           -110.6507
   XY=              6.2784   XZ=              1.3189   YZ=              0.4037

 Summary of Natural Population Analysis:

                                       Natural Population
                Natural  -----------------------------------------------
    Atom  No    Charge         Core      Valence    Rydberg      Total
 -----------------------------------------------------------------------
      C    1   -0.22831      1.99909     4.21453    0.01469     6.22831
      C    2   -0.24468      1.99910     4.23085    0.01473     6.24468
      C    3   -0.19961      1.99901     4.18532    0.01528     6.19961
      C    4   -0.40034      1.99888     4.37739    0.02406     6.40034
      C    5   -0.23657      1.99899     4.22067    0.01691     6.23657
      C    6   -0.22333      1.99909     4.21017    0.01407     6.22333
      P    7    1.24238      9.99750     3.70987    0.05025    13.75762
      C    8   -0.48998      1.99886     4.46555    0.02557     6.48998
      C    9   -0.26161      1.99899     4.24452    0.01810     6.26161
      C   10   -0.23129      1.99909     4.21756    0.01464     6.23129
      C   11   -0.30076      1.99910     4.28488    0.01678     6.30076
      C   12   -0.24442      1.99910     4.23029    0.01503     6.24442
      C   13   -0.23610      1.99901     4.22070    0.01638     6.23610
      C   14   -0.40626      1.99890     4.38149    0.02588     6.40626
      C   15   -0.21848      1.99902     4.20391    0.01555     6.21848
      C   16   -0.23160      1.99910     4.21830    0.01420     6.23160
      C   17   -0.21548      1.99909     4.20203    0.01435     6.21548
      C   18   -0.23533      1.99909     4.22194    0.01430     6.23533
      C   19   -0.20501      1.99900     4.18963    0.01639     6.20501
      H   20    0.23734      0.00000     0.76180    0.00086     0.76266
      H   21    0.24001      0.00000     0.75912    0.00087     0.75999
      H   22    0.23940      0.00000     0.75936    0.00124     0.76060
      H   23    0.24693      0.00000     0.75180    0.00126     0.75307
      H   24    0.24132      0.00000     0.75781    0.00087     0.75868
      H   25    0.23305      0.00000     0.76543    0.00152     0.76695
      H   26    0.23115      0.00000     0.76797    0.00088     0.76885
      H   27    0.22463      0.00000     0.77448    0.00089     0.77537
      H   28    0.22872      0.00000     0.77036    0.00092     0.77128
      H   29    0.22277      0.00000     0.77626    0.00097     0.77723
      H   30    0.23696      0.00000     0.76193    0.00111     0.76304
      H   31    0.24033      0.00000     0.75874    0.00094     0.75967
      H   32    0.23929      0.00000     0.75985    0.00086     0.76071
      H   33    0.24370      0.00000     0.75542    0.00087     0.75630
      H   34    0.26118      0.00000     0.73748    0.00134     0.73882
 =======================================================================
   * Total *    0.00000     45.98001    91.64742    0.37257   138.00000

 Normal termination of Gaussian 16 at Sun Aug 23 04:44:18 2020.
