 Gaussian 16, Revision A.03,

 ---------------------------------
 # opt=CalcAll B3LYP/6-31G* scf=qc
 ---------------------------------

 -------------------
 Title Card Required
 -------------------
 Symbolic Z-matrix:
 Charge =  0 Multiplicity = 1

 SCF Done:  E(RB3LYP) =  -1036.23870057     a.u. after    8 cycles
 SCF Done:  E(RB3LYP) =  -1036.26356060     a.u. after   17 cycles
 SCF Done:  E(RB3LYP) =  -1036.27352590     a.u. after   15 cycles
 SCF Done:  E(RB3LYP) =  -1036.29052791     a.u. after   17 cycles
 SCF Done:  E(RB3LYP) =  -1036.29551521     a.u. after   17 cycles
 SCF Done:  E(RB3LYP) =  -1036.29592324     a.u. after   17 cycles
 SCF Done:  E(RB3LYP) =  -1036.29756195     a.u. after   17 cycles
 SCF Done:  E(RB3LYP) =  -1036.29805377     a.u. after   15 cycles
 SCF Done:  E(RB3LYP) =  -1036.29813035     a.u. after   15 cycles
 SCF Done:  E(RB3LYP) =  -1036.29821926     a.u. after    9 cycles
 SCF Done:  E(RB3LYP) =  -1036.29823256     a.u. after    4 cycles
 SCF Done:  E(RB3LYP) =  -1036.29823283     a.u. after    4 cycles
 SCF Done:  E(RB3LYP) =  -1036.29823170     a.u. after    2 cycles
 SCF Done:  E(RB3LYP) =  -1036.29823185     a.u. after    2 cycles
 SCF Done:  E(RB3LYP) =  -1036.29823831     a.u. after    2 cycles
 SCF Done:  E(RB3LYP) =  -1036.29823514     a.u. after    2 cycles
 SCF Done:  E(RB3LYP) =  -1036.29823515     a.u. after    2 cycles
 SCF Done:  E(RB3LYP) =  -1036.29823383     a.u. after    2 cycles
 Optimization completed.
    -- Stationary point found.
 Normal termination of Gaussian 16 at Sun Aug 23 07:53:01 2020.

 ----------------------------------------------------------------------
 # freq B3LYP/6-31G* scf=qc volume NMR pop=NPA density=current Geom=All
 Check Guess=Read
 ----------------------------------------------------------------------

 Structure from the checkpoint file:  "phosphine_1_conf12.chk"
 -------------------
 Title Card Required
 -------------------
 Charge =  0 Multiplicity = 1

 SCF Done:  E(RB3LYP) =  -1036.29823383     a.u. after    1 cycles

      1  C    Isotropic =    68.1579   Anisotropy =   167.3222

      2  C    Isotropic =    68.7324   Anisotropy =   164.1300

      3  C    Isotropic =    61.0168   Anisotropy =   164.1246

      4  C    Isotropic =    56.1432   Anisotropy =   179.4183

      5  C    Isotropic =    62.5821   Anisotropy =   174.0700

      6  C    Isotropic =    68.6792   Anisotropy =   163.8896

      7  P    Isotropic =   361.5725   Anisotropy =    39.9047

      8  C    Isotropic =    56.1066   Anisotropy =   179.4182

      9  C    Isotropic =    62.5922   Anisotropy =   174.0103

     10  C    Isotropic =    68.6743   Anisotropy =   163.8794

     11  C    Isotropic =    68.1734   Anisotropy =   167.3265

     12  C    Isotropic =    68.7301   Anisotropy =   164.1505

     13  C    Isotropic =    61.0210   Anisotropy =   164.1273

     14  C    Isotropic =    56.1152   Anisotropy =   179.4356

     15  C    Isotropic =    62.5721   Anisotropy =   174.0424

     16  C    Isotropic =    68.6715   Anisotropy =   163.8843

     17  C    Isotropic =    68.1619   Anisotropy =   167.3333

     18  C    Isotropic =    68.7333   Anisotropy =   164.1395

     19  C    Isotropic =    61.0110   Anisotropy =   164.1076

     20  H    Isotropic =    25.0210   Anisotropy =     3.6414

     21  H    Isotropic =    24.9269   Anisotropy =     4.5875

     22  H    Isotropic =    24.6123   Anisotropy =     9.2487

     23  H    Isotropic =    25.4017   Anisotropy =    12.2288

     24  H    Isotropic =    25.0481   Anisotropy =     6.0862

     25  H    Isotropic =    25.4056   Anisotropy =    12.2301

     26  H    Isotropic =    25.0494   Anisotropy =     6.0864

     27  H    Isotropic =    25.0196   Anisotropy =     3.6438

     28  H    Isotropic =    24.9254   Anisotropy =     4.5918

     29  H    Isotropic =    24.6140   Anisotropy =     9.2548

     30  H    Isotropic =    25.4011   Anisotropy =    12.2254

     31  H    Isotropic =    25.0479   Anisotropy =     6.0868

     32  H    Isotropic =    25.0196   Anisotropy =     3.6426

     33  H    Isotropic =    24.9269   Anisotropy =     4.5877

     34  H    Isotropic =    24.6123   Anisotropy =     9.2490

  Exact polarizability: 224.182  -0.026 224.092  -0.024   0.035 165.033
 Approx polarizability: 331.005  -0.058 330.814  -0.056   0.086 308.012

                      1                      2                      3
                      A                      A                      A
 Frequencies --     22.9197                24.3481                38.8244
 Red. masses --      3.7977                 3.7990                 3.6893
 Frc consts  --      0.0012                 0.0013                 0.0033
 IR Inten    --      0.2812                 0.2830                 0.0016

                      4                      5                      6
                      A                      A                      A
 Frequencies --     53.3559                53.4554                70.6413
 Red. masses --      5.2515                 5.2494                 5.1680
 Frc consts  --      0.0088                 0.0088                 0.0152
 IR Inten    --      0.0847                 0.0848                 0.3099

                      7                      8                      9
                      A                      A                      A
 Frequencies --    181.5001               202.3705               202.7030
 Red. masses --      4.5612                 4.6435                 4.6424
 Frc consts  --      0.0885                 0.1120                 0.1124
 IR Inten    --      0.3531                 1.1345                 1.1376

                     10                     11                     12
                      A                      A                      A
 Frequencies --    245.5447               259.7111               259.8747
 Red. masses --      5.7380                 4.7188                 4.7219
 Frc consts  --      0.2038                 0.1875                 0.1879
 IR Inten    --      0.4828                 0.2260                 0.2245

                     13                     14                     15
                      A                      A                      A
 Frequencies --    408.8064               408.9072               412.3923
 Red. masses --      3.0789                 3.0804                 3.6123
 Frc consts  --      0.3032                 0.3035                 0.3620
 IR Inten    --      1.9571                 1.9763                 0.1647

                     16                     17                     18
                      A                      A                      A
 Frequencies --    417.0910               429.4274               429.5338
 Red. masses --      4.5868                 7.2987                 7.3184
 Frc consts  --      0.4701                 0.7930                 0.7955
 IR Inten    --      0.5586                 7.6743                 7.7263

                     19                     20                     21
                      A                      A                      A
 Frequencies --    509.3982               509.5589               516.4229
 Red. masses --      4.2476                 4.2445                 4.5884
 Frc consts  --      0.6494                 0.6493                 0.7210
 IR Inten    --     26.1035                26.0677                11.9725

                     22                     23                     24
                      A                      A                      A
 Frequencies --    632.7165               632.7445               633.3636
 Red. masses --      6.4271                 6.4272                 6.4370
 Frc consts  --      1.5159                 1.5161                 1.5214
 IR Inten    --      0.1795                 0.1797                 0.0163

                     25                     26                     27
                      A                      A                      A
 Frequencies --    691.8362               705.1507               705.1910
 Red. masses --      6.5810                 5.7576                 5.7303
 Frc consts  --      1.8559                 1.6868                 1.6790
 IR Inten    --      0.7832                 1.1138                 1.1399

                     28                     29                     30
                      A                      A                      A
 Frequencies --    712.2573               712.3347               713.3421
 Red. masses --      2.1994                 2.1959                 2.1349
 Frc consts  --      0.6574                 0.6565                 0.6401
 IR Inten    --     26.3875                26.3909                16.6178

                     31                     32                     33
                      A                      A                      A
 Frequencies --    761.4312               762.9094               762.9326
 Red. masses --      1.6153                 1.6479                 1.6484
 Frc consts  --      0.5518                 0.5651                 0.5653
 IR Inten    --     19.2145                24.9748                24.8935

                     34                     35                     36
                      A                      A                      A
 Frequencies --    866.2053               866.2256               868.8179
 Red. masses --      1.2477                 1.2477                 1.2462
 Frc consts  --      0.5516                 0.5516                 0.5542
 IR Inten    --      0.2284                 0.2204                 0.1326

                     37                     38                     39
                      A                      A                      A
 Frequencies --    932.9313               932.9976               934.2822
 Red. masses --      1.3442                 1.3442                 1.3384
 Frc consts  --      0.6893                 0.6894                 0.6883
 IR Inten    --      1.2530                 1.2730                 0.0406

                     40                     41                     42
                      A                      A                      A
 Frequencies --    975.8162               975.8447               977.6998
 Red. masses --      1.3613                 1.3612                 1.3555
 Frc consts  --      0.7637                 0.7637                 0.7634
 IR Inten    --      0.0174                 0.0152                 0.1405

                     43                     44                     45
                      A                      A                      A
 Frequencies --   1000.3719              1000.4081              1001.1352
 Red. masses --      1.2543                 1.2542                 1.2524
 Frc consts  --      0.7396                 0.7396                 0.7396
 IR Inten    --      0.0787                 0.0826                 0.0007

                     46                     47                     48
                      A                      A                      A
 Frequencies --   1015.3468              1015.3742              1015.7507
 Red. masses --      6.3108                 6.3117                 6.3101
 Frc consts  --      3.8332                 3.8340                 3.8359
 IR Inten    --      4.3654                 4.3560                 0.0526

                     49                     50                     51
                      A                      A                      A
 Frequencies --   1052.6987              1052.7493              1052.9408
 Red. masses --      3.3142                 3.3167                 3.2539
 Frc consts  --      2.1639                 2.1657                 2.1255
 IR Inten    --      2.0843                 2.0824                 0.0460

                     52                     53                     54
                      A                      A                      A
 Frequencies --   1107.8100              1108.0343              1109.4462
 Red. masses --      1.8865                 1.8756                 1.6547
 Frc consts  --      1.3641                 1.3568                 1.2000
 IR Inten    --      4.3082                 4.1544                 2.9103

                     55                     56                     57
                      A                      A                      A
 Frequencies --   1110.7931              1110.8415              1115.9619
 Red. masses --      2.1935                 2.1928                 2.6121
 Frc consts  --      1.5946                 1.5942                 1.9167
 IR Inten    --      9.4427                 9.3730                 1.1683

                     58                     59                     60
                      A                      A                      A
 Frequencies --   1193.5175              1193.9331              1193.9730
 Red. masses --      1.1034                 1.1001                 1.1001
 Frc consts  --      0.9261                 0.9239                 0.9240
 IR Inten    --      0.0016                 0.1313                 0.1297

                     61                     62                     63
                      A                      A                      A
 Frequencies --   1219.2302              1219.4080              1220.7951
 Red. masses --      1.1475                 1.1477                 1.1473
 Frc consts  --      1.0050                 1.0055                 1.0075
 IR Inten    --      6.0582                 5.9915                 0.3976

                     64                     65                     66
                      A                      A                      A
 Frequencies --   1325.0031              1328.7024              1328.8511
 Red. masses --      3.4866                 3.4856                 3.5034
 Frc consts  --      3.6065                 3.6256                 3.6449
 IR Inten    --      2.6401                 2.4311                 2.4504

                     67                     68                     69
                      A                      A                      A
 Frequencies --   1365.1634              1365.2822              1365.6557
 Red. masses --      1.6570                 1.6538                 1.6442
 Frc consts  --      1.8195                 1.8163                 1.8068
 IR Inten    --      0.1461                 0.8663                 2.3748

                     70                     71                     72
                      A                      A                      A
 Frequencies --   1480.5195              1480.9641              1481.0469
 Red. masses --      2.1103                 2.1151                 2.1156
 Frc consts  --      2.7254                 2.7332                 2.7341
 IR Inten    --     16.6462                 6.6153                 6.6008

                     73                     74                     75
                      A                      A                      A
 Frequencies --   1531.1169              1531.5851              1531.6898
 Red. masses --      2.0154                 1.9987                 1.9978
 Frc consts  --      2.7837                 2.7624                 2.7616
 IR Inten    --      2.0745                10.1441                10.1007

                     76                     77                     78
                      A                      A                      A
 Frequencies --   1630.1825              1630.4494              1630.4951
 Red. masses --      5.1008                 5.1126                 5.1122
 Frc consts  --      7.9866                 8.0077                 8.0075
 IR Inten    --      0.3965                 0.0468                 0.0447

                     79                     80                     81
                      A                      A                      A
 Frequencies --   1646.1683              1646.1998              1647.9858
 Red. masses --      5.2715                 5.2694                 5.2818
 Frc consts  --      8.4165                 8.4135                 8.4516
 IR Inten    --      3.5097                 3.5222                 0.3186

                     82                     83                     84
                      A                      A                      A
 Frequencies --   3176.1136              3176.1242              3176.1310
 Red. masses --      1.0854                 1.0853                 1.0853
 Frc consts  --      6.4510                 6.4508                 6.4508
 IR Inten    --      2.6520                 1.6689                 1.7164

                     85                     86                     87
                      A                      A                      A
 Frequencies --   3182.6515              3182.6711              3182.7436
 Red. masses --      1.0875                 1.0875                 1.0876
 Frc consts  --      6.4901                 6.4902                 6.4911
 IR Inten    --      0.7844                 0.7342                 0.1579

                     88                     89                     90
                      A                      A                      A
 Frequencies --   3192.8422              3192.8617              3192.9866
 Red. masses --      1.0916                 1.0916                 1.0917
 Frc consts  --      6.5566                 6.5567                 6.5578
 IR Inten    --     10.1485                10.4281                47.3479

                     91                     92                     93
                      A                      A                      A
 Frequencies --   3203.8437              3203.9291              3204.3095
 Red. masses --      1.0940                 1.0941                 1.0942
 Frc consts  --      6.6164                 6.6171                 6.6194
 IR Inten    --     40.7787                40.0708                 5.8034

                     94                     95                     96
                      A                      A                      A
 Frequencies --   3209.9612              3210.0881              3210.9520
 Red. masses --      1.0958                 1.0957                 1.0957
 Frc consts  --      6.6524                 6.6523                 6.6557
 IR Inten    --     20.9132                20.0949                16.2358

 - Thermochemistry -
 -------------------
 Temperature   298.150 Kelvin.  Pressure   1.00000 Atm.
 Atom     1 has atomic number  6 and mass  12.00000

 Molecular mass:   262.09114 amu.
 Principal axes and moments of inertia in atomic units:
                           1         2         3
     Eigenvalues --  5162.355285163.207618680.48074
           X            0.99953  -0.03082  -0.00001
           Y            0.03082   0.99953   0.00001
           Z            0.00001  -0.00001   1.00000
 This molecule is an asymmetric top.
 Rotational symmetry number  1.
 Warning -- assumption of classical behavior for rotation
           may cause significant error
 Rotational temperatures (Kelvin)      0.01678     0.01678     0.00998
 Rotational constants (GHZ):           0.34960     0.34954     0.20791
 Zero-point vibrational energy     719970.1 (Joules/Mol)
                                  172.07699 (Kcal/Mol)
 Warning -- explicit consideration of  21 degrees of freedom as
           vibrations may cause significant error
 Vibrational temperatures:     32.98    35.03    55.86    76.77    76.91
          (Kelvin)            101.64   261.14   291.17   291.64   353.28
                              373.67   373.90   588.18   588.33   593.34
                              600.10   617.85   618.00   732.91   733.14
                              743.02   910.34   910.38   911.27   995.40
                             1014.55  1014.61  1024.78  1024.89  1026.34
                             1095.53  1097.66  1097.69  1246.28  1246.31
                             1250.04  1342.28  1342.38  1344.22  1403.98
                             1404.02  1406.69  1439.31  1439.36  1440.41
                             1460.86  1460.90  1461.44  1514.60  1514.67
                             1514.95  1593.89  1594.21  1596.25  1598.18
                             1598.25  1605.62  1717.21  1717.80  1717.86
                             1754.20  1754.46  1756.45  1906.38  1911.71
                             1911.92  1964.17  1964.34  1964.87  2130.14
                             2130.78  2130.90  2202.94  2203.61  2203.76
                             2345.47  2345.85  2345.92  2368.47  2368.51
                             2371.08  4569.72  4569.73  4569.74  4579.13
                             4579.15  4579.26  4593.79  4593.82  4594.00
                             4609.62  4609.74  4610.29  4618.42  4618.60
                             4619.84

 Zero-point correction=                           0.274222 (Hartree/Particle)
 Thermal correction to Energy=                    0.290141
 Thermal correction to Enthalpy=                  0.291085
 Thermal correction to Gibbs Free Energy=         0.227795
 Sum of electronic and zero-point Energies=          -1036.024012
 Sum of electronic and thermal Energies=             -1036.008093
 Sum of electronic and thermal Enthalpies=           -1036.007149
 Sum of electronic and thermal Free Energies=        -1036.070439

                     E (Thermal)             CV                S
                      KCal/Mol        Cal/Mol-Kelvin    Cal/Mol-Kelvin
 Total                  182.066             62.536            133.206
 Electronic               0.000              0.000              0.000
 Translational            0.889              2.981             42.590
 Rotational               0.889              2.981             33.803
 Vibrational            180.289             56.575             56.813
 Vibration     1          0.593              1.985              6.364
 Vibration     2          0.593              1.985              6.244
 Vibration     3          0.594              1.981              5.318
 Vibration     4          0.596              1.976              4.689
 Vibration     5          0.596              1.976              4.685
 Vibration     6          0.598              1.968              4.135
 Vibration     7          0.630              1.865              2.313
 Vibration     8          0.639              1.837              2.111
 Vibration     9          0.639              1.836              2.108
 Vibration    10          0.660              1.770              1.762
 Vibration    11          0.668              1.746              1.664
 Vibration    12          0.668              1.746              1.663
 Vibration    13          0.773              1.451              0.931
 Vibration    14          0.773              1.451              0.930
 Vibration    15          0.776              1.443              0.918
 Vibration    16          0.780              1.433              0.902
 Vibration    17          0.791              1.406              0.861
 Vibration    18          0.791              1.406              0.860
 Vibration    19          0.865              1.229              0.635
 Vibration    20          0.865              1.229              0.635
 Vibration    21          0.871              1.214              0.618

                           ! Non-Optimized Parameters !
 Normal termination of Gaussian 16 at Sun Aug 23 08:04:52 2020.
 Gaussian 16:  ES64L-G16RevA.03 25-Dec-2016

 ----------------------------------------------------------------------
 # TD(NStates=10, Root=1) B3LYP/6-31G* scf=qc volume pop=NPA density=cu
 rrent Geom=AllCheck Guess=Read
 ----------------------------------------------------------------------

 Structure from the checkpoint file:  "phosphine_1_conf13.chk"
 -------------------
 Title Card Required
 -------------------
 Charge =  0 Multiplicity = 1

                         Standard orientation:
 ---------------------------------------------------------------------
 Center     Atomic      Atomic             Coordinates (Angstroms)
 Number     Number       Type             X           Y           Z
 ---------------------------------------------------------------------
      1          6           0       -4.094354   -1.248055    0.651767
      2          6           0       -4.021160   -0.471210   -0.506409
      3          6           0       -2.778745   -0.118611   -1.032916
      4          6           0       -1.588183   -0.518894   -0.402813
      5          6           0       -1.675576   -1.301497    0.758657
      6          6           0       -2.919491   -1.664531    1.279710
      7         15           0       -0.000011   -0.000069   -1.206664
      8          6           0        0.344754    1.634753   -0.402778
      9          6           0       -0.291194    2.103000    0.757139
     10          6           0        0.016486    3.361820    1.278055
     11          6           0        0.966585    4.169807    0.651544
     12          6           0        1.604638    3.716731   -0.505107
     13          6           0        1.288686    2.464466   -1.031504
     14          6           0        1.243345   -1.115936   -0.402545
     15          6           0        1.964198   -0.800512    0.759354
     16          6           0        2.900510   -1.696222    1.280547
     17          6           0        3.127839   -2.921664    0.652302
     18          6           0        2.419097   -3.246479   -0.506309
     19          6           0        1.492551   -2.346863   -1.032934
     20          1           0       -5.061345   -1.532509    1.058344
     21          1           0       -4.931135   -0.148898   -1.005993
     22          1           0       -2.729832    0.470133   -1.946212
     23          1           0       -0.768956   -1.632431    1.256258
     24          1           0       -2.969069   -2.273490    2.178969
     25          1           0       -1.032692    1.484317    1.253617
     26          1           0       -0.487573    3.710216    2.176110
     27          1           0        1.203824    5.149492    1.058024
     28          1           0        2.340312    4.342676   -1.003607
     29          1           0        1.775580    2.126795   -1.943666
     30          1           0        1.797090    0.149932    1.257173
     31          1           0        3.452201   -1.434854    2.180147
     32          1           0        3.857663   -3.616833    1.058983
     33          1           0        2.595430   -4.195475   -1.006148
     34          1           0        0.958747   -2.598641   -1.946599
 ---------------------------------------------------------------------

 SCF Done:  E(RB3LYP) =  -1036.29823383     a.u. after    1 cycles

 Excitation energies and oscillator strengths:

 Excited State   1:      Singlet-A      4.5099 eV  274.92 nm  f=0.1277  <S**2>=0.000
      69 -> 70         0.69711
 This state for optimization and/or second-order correction.
 Total Energy, E(TD-HF/TD-DFT) =  -1036.13249895
 Copying the excited state density for this state as the 1-particle RhoCI density.

 Excited State   2:      Singlet-A      4.5110 eV  274.85 nm  f=0.1281  <S**2>=0.000
      69 -> 71         0.69709

 Excited State   3:      Singlet-A      4.7567 eV  260.65 nm  f=0.0022  <S**2>=0.000
      67 -> 70        -0.12440
      68 -> 71         0.12465
      69 -> 72         0.67469

 Excited State   4:      Singlet-A      5.0577 eV  245.14 nm  f=0.0002  <S**2>=0.000
      66 -> 70         0.16462
      67 -> 71        -0.13458
      68 -> 70         0.13451
      69 -> 74         0.62965

 Excited State   5:      Singlet-A      5.0582 eV  245.12 nm  f=0.0002  <S**2>=0.000
      66 -> 71        -0.16495
      67 -> 70         0.13500
      68 -> 71         0.13492
      69 -> 75         0.62934

 Excited State   6:      Singlet-A      5.1506 eV  240.72 nm  f=0.0085  <S**2>=0.000
      69 -> 73         0.67913

 Excited State   7:      Singlet-A      5.4276 eV  228.43 nm  f=0.0147  <S**2>=0.000
      63 -> 72         0.16609
      64 -> 74         0.14725
      65 -> 75        -0.14612
      67 -> 70         0.42236
      68 -> 71        -0.41884
      69 -> 72         0.16505

 Excited State   8:      Singlet-A      5.5141 eV  224.85 nm  f=0.0005  <S**2>=0.000
      63 -> 74         0.14273
      64 -> 70        -0.11816
      64 -> 72         0.22523
      65 -> 71         0.11790
      65 -> 72         0.17113
      66 -> 70        -0.22594
      67 -> 71         0.26989
      68 -> 70        -0.27252
      68 -> 72        -0.16217
      69 -> 74         0.28513

 Excited State   9:      Singlet-A      5.5147 eV  224.82 nm  f=0.0004  <S**2>=0.000
      63 -> 75         0.14297
      64 -> 71        -0.11615
      64 -> 72         0.17130
      65 -> 70        -0.11761
      65 -> 72        -0.22525
      66 -> 71         0.22531
      67 -> 70        -0.26906
      67 -> 72         0.16260
      68 -> 71        -0.27452
      69 -> 75         0.28563

 Excited State  10:      Singlet-A      5.6182 eV  220.68 nm  f=0.0009  <S**2>=0.000
      67 -> 71         0.48083
      68 -> 70         0.48507

 The electronic state is 1-A.
 Alpha  occ. eigenvalues --  -77.08113 -10.19447 -10.19447 -10.19447 -10.19147
 Alpha  occ. eigenvalues --  -10.19147 -10.19145 -10.19118 -10.19117 -10.19116
 Alpha  occ. eigenvalues --  -10.19031 -10.19031 -10.19029 -10.19008 -10.19008
 Alpha  occ. eigenvalues --  -10.19006 -10.18962 -10.18962 -10.18960  -6.54844
 Alpha  occ. eigenvalues --   -4.71103  -4.71103  -4.70601  -0.85560  -0.84846
 Alpha  occ. eigenvalues --   -0.84845  -0.76669  -0.74366  -0.74366  -0.74329
 Alpha  occ. eigenvalues --   -0.73821  -0.73821  -0.64436  -0.60336  -0.60307
 Alpha  occ. eigenvalues --   -0.60307  -0.59207  -0.59207  -0.55448  -0.51435
 Alpha  occ. eigenvalues --   -0.51435  -0.49295  -0.45440  -0.45440  -0.44773
 Alpha  occ. eigenvalues --   -0.44345  -0.44344  -0.44067  -0.41946  -0.41868
 Alpha  occ. eigenvalues --   -0.41868  -0.40378  -0.40377  -0.36844  -0.36351
 Alpha  occ. eigenvalues --   -0.36350  -0.35899  -0.34252  -0.34251  -0.34224
 Alpha  occ. eigenvalues --   -0.31884  -0.31883  -0.26778  -0.25448  -0.25446
 Alpha  occ. eigenvalues --   -0.25243  -0.24704  -0.24703  -0.21144
 Alpha virt. eigenvalues --   -0.01880  -0.01877  -0.00831   0.00172   0.00428
 Alpha virt. eigenvalues --    0.00430   0.06880   0.06886   0.09493   0.11038
 Alpha virt. eigenvalues --    0.11039   0.13904   0.14528   0.14529   0.15164

 Mulliken charges:
               1
     1  C   -0.158283
     2  C   -0.118615
     3  C   -0.175917
     4  C   -0.126916
     5  C   -0.164046
     6  C   -0.122582
     7  P    0.450671
     8  C   -0.081150
     9  C   -0.148350
    10  C   -0.119862
    11  C   -0.120645
    12  C   -0.118917
    13  C   -0.156523
    14  C   -0.113233
    15  C   -0.173161
    16  C   -0.115644
    17  C   -0.157227
    18  C   -0.125527
    19  C   -0.159798
    20  H    0.115787
    21  H    0.118971
    22  H    0.118244
    23  H    0.146378
    24  H    0.123784
    25  H    0.176955
    26  H    0.148308
    27  H    0.147850
    28  H    0.144304
    29  H    0.150362
    30  H    0.127518
    31  H    0.123582
    32  H    0.116911
    33  H    0.121269
    34  H    0.125502
 Sum of Mulliken charges =  -0.00000

 Dipole moment (field-independent basis, Debye):
    X=              0.8940    Y=              3.6438    Z=             -0.1960  Tot=              3.7570
 Quadrupole moment (field-independent basis, Debye-Ang):
   XX=           -119.9102   YY=           -107.1506   ZZ=           -110.6692
   XY=              2.8871   XZ=             -0.5087   YZ=              1.2499

 Summary of Natural Population Analysis:

                                       Natural Population
                Natural  -----------------------------------------------
    Atom  No    Charge         Core      Valence    Rydberg      Total
 -----------------------------------------------------------------------
      C    1   -0.27547      1.99909     4.26024    0.01614     6.27547
      C    2   -0.23669      1.99910     4.22294    0.01466     6.23669
      C    3   -0.23797      1.99902     4.22269    0.01627     6.23797
      C    4   -0.47083      1.99888     4.44569    0.02626     6.47083
      C    5   -0.23692      1.99899     4.22037    0.01756     6.23692
      C    6   -0.23637      1.99909     4.22264    0.01464     6.23637
      P    7    1.24214      9.99750     3.71011    0.05024    13.75786
      C    8   -0.37649      1.99891     4.35273    0.02485     6.37649
      C    9   -0.20510      1.99900     4.19002    0.01608     6.20510
      C   10   -0.22976      1.99909     4.21662    0.01405     6.22976
      C   11   -0.19564      1.99909     4.18287    0.01367     6.19564
      C   12   -0.23503      1.99910     4.22170    0.01423     6.23503
      C   13   -0.20220      1.99902     4.18808    0.01510     6.20220
      C   14   -0.44933      1.99887     4.42607    0.02439     6.44933
      C   15   -0.26076      1.99899     4.24403    0.01774     6.26076
      C   16   -0.22397      1.99909     4.21055    0.01433     6.22397
      C   17   -0.27346      1.99909     4.25834    0.01602     6.27346
      C   18   -0.24887      1.99910     4.23469    0.01508     6.24887
      C   19   -0.21415      1.99901     4.19928    0.01586     6.21415
      H   20    0.22893      0.00000     0.77016    0.00091     0.77107
      H   21    0.23174      0.00000     0.76731    0.00095     0.76826
      H   22    0.22554      0.00000     0.77349    0.00097     0.77446
      H   23    0.24462      0.00000     0.75382    0.00157     0.75538
      H   24    0.23504      0.00000     0.76407    0.00089     0.76496
      H   25    0.26201      0.00000     0.73679    0.00120     0.73799
      H   26    0.24633      0.00000     0.75281    0.00086     0.75367
      H   27    0.24281      0.00000     0.75638    0.00082     0.75719
      H   28    0.24382      0.00000     0.75529    0.00089     0.75618
      H   29    0.24286      0.00000     0.75593    0.00120     0.75714
      H   30    0.23457      0.00000     0.76406    0.00136     0.76543
      H   31    0.23479      0.00000     0.76433    0.00088     0.76521
      H   32    0.22952      0.00000     0.76959    0.00089     0.77048
      H   33    0.23351      0.00000     0.76561    0.00088     0.76649
      H   34    0.23077      0.00000     0.76808    0.00115     0.76923
 =======================================================================
   * Total *   -0.00000     45.98001    91.64740    0.37259   138.00000

 Normal termination of Gaussian 16 at Sun Aug 23 08:17:17 2020.
