 Gaussian 16, Revision A.03,

 ---------------------------------
 # opt=CalcAll B3LYP/6-31G* scf=qc
 ---------------------------------

 -------------------
 Title Card Required
 -------------------
 Symbolic Z-matrix:
 Charge =  0 Multiplicity = 1

 SCF Done:  E(RB3LYP) =  -1333.99191640     a.u. after    7 cycles
 SCF Done:  E(RB3LYP) =  -1333.99802960     a.u. after   17 cycles
 SCF Done:  E(RB3LYP) =  -1333.99885212     a.u. after   15 cycles
 SCF Done:  E(RB3LYP) =  -1333.99895470     a.u. after   11 cycles
 SCF Done:  E(RB3LYP) =  -1333.99897138     a.u. after    7 cycles
 SCF Done:  E(RB3LYP) =  -1333.99897749     a.u. after    5 cycles
 SCF Done:  E(RB3LYP) =  -1333.99897743     a.u. after    5 cycles
 SCF Done:  E(RB3LYP) =  -1333.99898015     a.u. after    2 cycles
 SCF Done:  E(RB3LYP) =  -1333.99898026     a.u. after    2 cycles
 SCF Done:  E(RB3LYP) =  -1333.99897468     a.u. after    3 cycles
 SCF Done:  E(RB3LYP) =  -1333.99897978     a.u. after    2 cycles
 SCF Done:  E(RB3LYP) =  -1333.99898275     a.u. after    3 cycles
 SCF Done:  E(RB3LYP) =  -1333.99897304     a.u. after    2 cycles
 SCF Done:  E(RB3LYP) =  -1333.99897423     a.u. after    4 cycles
 Optimization completed on the basis of negligible forces.
    -- Stationary point found.
 Normal termination of Gaussian 16 at Sun Aug 23 15:08:03 2020.

 ----------------------------------------------------------------------
 # freq B3LYP/6-31G* scf=qc volume NMR pop=NPA density=current Geom=All
 Check Guess=Read
 ----------------------------------------------------------------------

 Structure from the checkpoint file:  "phosphine_5_conf62.chk"
 -------------------
 Title Card Required
 -------------------
 Charge =  0 Multiplicity = 1

 SCF Done:  E(RB3LYP) =  -1333.99897423     a.u. after    1 cycles

      1  C    Isotropic =    79.9292   Anisotropy =   137.4256

      2  C    Isotropic =    59.0081   Anisotropy =   162.7879

      3  C    Isotropic =    61.6652   Anisotropy =   173.4648

      4  C    Isotropic =    60.6949   Anisotropy =   171.9281

      5  C    Isotropic =    80.0604   Anisotropy =   136.7293

      6  C    Isotropic =    32.6641   Anisotropy =    98.8297

      7  F    Isotropic =   295.7933   Anisotropy =   113.0810

      8  P    Isotropic =   366.1538   Anisotropy =    39.8040

      9  C    Isotropic =    61.5743   Anisotropy =   173.5520

     10  C    Isotropic =    60.7717   Anisotropy =   171.8412

     11  C    Isotropic =    80.0822   Anisotropy =   136.7483

     12  C    Isotropic =    32.6832   Anisotropy =    98.7803

     13  C    Isotropic =    79.9458   Anisotropy =   137.4521

     14  C    Isotropic =    59.0915   Anisotropy =   162.8221

     15  F    Isotropic =   295.8207   Anisotropy =   112.9036

     16  C    Isotropic =    61.6140   Anisotropy =   173.5241

     17  C    Isotropic =    59.0013   Anisotropy =   162.7406

     18  C    Isotropic =    79.9220   Anisotropy =   137.4293

     19  C    Isotropic =    32.6497   Anisotropy =    98.8444

     20  C    Isotropic =    80.0715   Anisotropy =   136.7214

     21  C    Isotropic =    60.6772   Anisotropy =   171.9092

     22  F    Isotropic =   295.7631   Anisotropy =   113.1005

     23  H    Isotropic =    25.3577   Anisotropy =     4.2573

     24  H    Isotropic =    24.6173   Anisotropy =     8.9188

     25  H    Isotropic =    25.3576   Anisotropy =    12.0176

     26  H    Isotropic =    25.4637   Anisotropy =     5.7376

     27  H    Isotropic =    25.3669   Anisotropy =    12.0386

     28  H    Isotropic =    25.4662   Anisotropy =     5.7395

     29  H    Isotropic =    25.3627   Anisotropy =     4.2535

     30  H    Isotropic =    24.6236   Anisotropy =     8.9339

     31  H    Isotropic =    24.6157   Anisotropy =     8.9116

     32  H    Isotropic =    25.3570   Anisotropy =     4.2602

     33  H    Isotropic =    25.4674   Anisotropy =     5.7331

     34  H    Isotropic =    25.3606   Anisotropy =    12.0004

  Exact polarizability: 226.323   0.154 225.965  -0.088  -0.158 167.780
 Approx polarizability: 338.057   0.342 337.415  -0.190  -0.360 314.984

                      1                      2                      3
                      A                      A                      A
 Frequencies --     23.0215                23.7251                37.3531
 Red. masses --      4.0395                 4.0878                 9.1996
 Frc consts  --      0.0013                 0.0014                 0.0076
 IR Inten    --      0.2530                 0.2532                 0.0915

                      4                      5                      6
                      A                      A                      A
 Frequencies --     37.4405                40.0937                50.6388
 Red. masses --      8.9706                 3.7326                 9.9540
 Frc consts  --      0.0074                 0.0035                 0.0150
 IR Inten    --      0.1002                 0.0047                 0.1148

                      7                      8                      9
                      A                      A                      A
 Frequencies --    132.9511               145.4052               145.8044
 Red. masses --      8.0529                 8.3704                 8.3721
 Frc consts  --      0.0839                 0.1043                 0.1049
 IR Inten    --      0.0234                 0.5229                 0.5147

                     10                     11                     12
                      A                      A                      A
 Frequencies --    209.0179               218.8608               219.5222
 Red. masses --      8.0497                 6.9848                 6.9945
 Frc consts  --      0.2072                 0.1971                 0.1986
 IR Inten    --      0.2895                 0.5281                 0.5285

                     13                     14                     15
                      A                      A                      A
 Frequencies --    307.9183               335.9516               336.0925
 Red. masses --      8.4311                 8.3109                 8.3112
 Frc consts  --      0.4710                 0.5526                 0.5531
 IR Inten    --      1.0309                 0.0449                 0.0430

                     16                     17                     18
                      A                      A                      A
 Frequencies --    397.1342               404.1278               404.1744
 Red. masses --      7.7437                 8.0388                 8.0059
 Frc consts  --      0.7196                 0.7735                 0.7705
 IR Inten    --      0.3034                10.0949                10.1201

                     19                     20                     21
                      A                      A                      A
 Frequencies --    420.5965               420.7211               424.7145
 Red. masses --      3.2847                 3.2763                 3.1348
 Frc consts  --      0.3424                 0.3417                 0.3332
 IR Inten    --      1.1384                 1.1024                 0.0228

                     22                     23                     24
                      A                      A                      A
 Frequencies --    434.9950               435.2230               463.5725
 Red. masses --      6.1450                 6.1503                 6.6443
 Frc consts  --      0.6851                 0.6864                 0.8413
 IR Inten    --     18.9141                19.0525                 7.4001

                     25                     26                     27
                      A                      A                      A
 Frequencies --    532.9828               533.1248               535.4989
 Red. masses --      2.8108                 2.8118                 2.9073
 Frc consts  --      0.4704                 0.4709                 0.4912
 IR Inten    --     21.8509                21.9294                13.4644

                     28                     29                     30
                      A                      A                      A
 Frequencies --    608.0595               629.9960               630.0492
 Red. masses --      7.9084                 7.8302                 7.8280
 Frc consts  --      1.7228                 1.8310                 1.8308
 IR Inten    --      0.0094                 0.0366                 0.0396

                     31                     32                     33
                      A                      A                      A
 Frequencies --    648.2422               648.3816               648.4549
 Red. masses --      7.2770                 7.3788                 7.3815
 Frc consts  --      1.8017                 1.8277                 1.8288
 IR Inten    --      0.0051                 0.1271                 0.1308

                     34                     35                     36
                      A                      A                      A
 Frequencies --    715.1141               715.6465               715.6807
 Red. masses --      4.8093                 4.8261                 4.8277
 Frc consts  --      1.4491                 1.4563                 1.4569
 IR Inten    --      1.0621                 3.9036                 3.9832

                     37                     38                     39
                      A                      A                      A
 Frequencies --    835.7279               835.8174               836.8588
 Red. masses --      1.2619                 1.2636                 1.3262
 Frc consts  --      0.5193                 0.5201                 0.5472
 IR Inten    --      0.5143                 0.5481                11.2195

                     40                     41                     42
                      A                      A                      A
 Frequencies --    839.5206               839.5564               839.7920
 Red. masses --      3.2744                 3.2670                 4.0316
 Frc consts  --      1.3597                 1.3567                 1.6752
 IR Inten    --     62.4387                61.3126                18.0820

                     43                     44                     45
                      A                      A                      A
 Frequencies --    843.6451               843.7712               844.0570
 Red. masses --      1.9996                 1.9931                 1.6614
 Frc consts  --      0.8385                 0.8360                 0.6974
 IR Inten    --     10.1558                10.1519                12.1699

                     46                     47                     48
                      A                      A                      A
 Frequencies --    958.6113               958.7259               959.8549
 Red. masses --      1.2561                 1.2560                 1.2586
 Frc consts  --      0.6801                 0.6802                 0.6832
 IR Inten    --      0.1706                 0.1668                 0.3369

                     49                     50                     51
                      A                      A                      A
 Frequencies --    969.8688               969.9713               973.4292
 Red. masses --      1.3355                 1.3353                 1.3196
 Frc consts  --      0.7402                 0.7402                 0.7367
 IR Inten    --      0.0362                 0.0324                 0.3115

                     52                     53                     54
                      A                      A                      A
 Frequencies --   1034.7099              1034.7810              1035.1679
 Red. masses --      3.0262                 3.0308                 3.0233
 Frc consts  --      1.9089                 1.9121                 1.9088
 IR Inten    --      7.9386                 7.9379                 0.1204

                     55                     56                     57
                      A                      A                      A
 Frequencies --   1102.9209              1103.0361              1108.7760
 Red. masses --      3.6673                 3.6669                 3.5544
 Frc consts  --      2.6284                 2.6286                 2.5746
 IR Inten    --     19.2857                19.2026                 1.8734

                     58                     59                     60
                      A                      A                      A
 Frequencies --   1127.4793              1127.6985              1127.8976
 Red. masses --      1.3301                 1.3305                 1.3290
 Frc consts  --      0.9962                 0.9969                 0.9961
 IR Inten    --      1.1256                 0.8490                 7.0754

                     61                     62                     63
                      A                      A                      A
 Frequencies --   1195.1851              1195.5106              1199.4533
 Red. masses --      1.1836                 1.1850                 1.1803
 Frc consts  --      0.9961                 0.9979                 1.0004
 IR Inten    --     60.5367                61.1188                 2.5507

                     64                     65                     66
                      A                      A                      A
 Frequencies --   1285.3097              1285.4207              1286.1954
 Red. masses --      3.7548                 3.7454                 3.7845
 Frc consts  --      3.6547                 3.6462                 3.6887
 IR Inten    --    167.2279               167.0498                38.2696

                     67                     68                     69
                      A                      A                      A
 Frequencies --   1324.1333              1327.3068              1327.5816
 Red. masses --      2.7340                 2.2147                 2.2857
 Frc consts  --      2.8243                 2.2988                 2.3736
 IR Inten    --      8.8343                 3.8456                 3.9319

                     70                     71                     72
                      A                      A                      A
 Frequencies --   1336.6620              1336.8258              1337.0890
 Red. masses --      2.3428                 2.2608                 1.9402
 Frc consts  --      2.4662                 2.3805                 2.0437
 IR Inten    --      0.3688                 0.3131                 0.9131

                     73                     74                     75
                      A                      A                      A
 Frequencies --   1437.9073              1438.0697              1438.1673
 Red. masses --      2.9861                 2.9923                 2.9911
 Frc consts  --      3.6377                 3.6460                 3.6451
 IR Inten    --      6.9578                 2.8644                 2.3016

                     76                     77                     78
                      A                      A                      A
 Frequencies --   1545.5017              1545.6617              1546.4731
 Red. masses --      2.4090                 2.4058                 2.4450
 Frc consts  --      3.3901                 3.3864                 3.4452
 IR Inten    --    116.1942               116.6761                24.2721

                     79                     80                     81
                      A                      A                      A
 Frequencies --   1633.9206              1633.9412              1633.9777
 Red. masses --      6.9698                 6.9632                 6.9605
 Frc consts  --     10.9631                10.9529                10.9493
 IR Inten    --      9.6384                11.2024                13.9140

                     82                     83                     84
                      A                      A                      A
 Frequencies --   1653.4944              1653.5432              1654.3695
 Red. masses --      5.8100                 5.8071                 5.8799
 Frc consts  --      9.3591                 9.3550                 9.4816
 IR Inten    --     82.9068                82.6774                22.5549

                     85                     86                     87
                      A                      A                      A
 Frequencies --   3188.7573              3188.8767              3188.9297
 Red. masses --      1.0892                 1.0892                 1.0892
 Frc consts  --      6.5254                 6.5257                 6.5258
 IR Inten    --      5.3973                 4.7497                 3.2456

                     88                     89                     90
                      A                      A                      A
 Frequencies --   3205.9026              3205.9498              3206.5633
 Red. masses --      1.0878                 1.0878                 1.0878
 Frc consts  --      6.5870                 6.5872                 6.5902
 IR Inten    --      2.0218                 2.0623                 0.3540

                     91                     92                     93
                      A                      A                      A
 Frequencies --   3221.8819              3221.9651              3222.1587
 Red. masses --      1.0942                 1.0942                 1.0940
 Frc consts  --      6.6922                 6.6923                 6.6922
 IR Inten    --      3.2858                 3.2121                11.4201

                     94                     95                     96
                      A                      A                      A
 Frequencies --   3222.5735              3222.6767              3222.8819
 Red. masses --      1.0937                 1.0936                 1.0939
 Frc consts  --      6.6921                 6.6920                 6.6946
 IR Inten    --     12.1729                12.1176                 0.5651

 - Thermochemistry -
 -------------------
 Temperature   298.150 Kelvin.  Pressure   1.00000 Atm.
 Atom     1 has atomic number  6 and mass  12.00000

 Molecular mass:   316.06287 amu.
 Principal axes and moments of inertia in atomic units:
                           1         2         3
     Eigenvalues --  8312.503368325.23777**********
           X            0.99973   0.02325  -0.00003
           Y           -0.02325   0.99973  -0.00004
           Z            0.00003   0.00004   1.00000
 This molecule is an asymmetric top.
 Rotational symmetry number  1.
 Warning -- assumption of classical behavior for rotation
           may cause significant error
 Rotational temperatures (Kelvin)      0.01042     0.01040     0.00597
 Rotational constants (GHZ):           0.21711     0.21678     0.12430
 Zero-point vibrational energy     655271.1 (Joules/Mol)
                                  156.61356 (Kcal/Mol)
 Warning -- explicit consideration of  28 degrees of freedom as
           vibrations may cause significant error
 Vibrational temperatures:     33.12    34.14    53.74    53.87    57.69
          (Kelvin)             72.86   191.29   209.21   209.78   300.73
                              314.89   315.84   443.03   483.36   483.56
                              571.39   581.45   581.52   605.14   605.32
                              611.07   625.86   626.19   666.98   766.84
                              767.05   770.46   874.86   906.42   906.50
                              932.68   932.88   932.98  1028.89  1029.66
                             1029.70  1202.43  1202.55  1204.05  1207.88
                             1207.93  1208.27  1213.82  1214.00  1214.41
                             1379.23  1379.39  1381.02  1395.42  1395.57
                             1400.55  1488.72  1488.82  1489.38  1586.86
                             1587.02  1595.28  1622.19  1622.51  1622.79
                             1719.60  1720.07  1725.75  1849.27  1849.43
                             1850.55  1905.13  1909.70  1910.09  1923.16
                             1923.39  1923.77  2068.83  2069.06  2069.20
                             2223.63  2223.86  2225.03  2350.85  2350.88
                             2350.93  2379.01  2379.08  2380.27  4587.91
                             4588.08  4588.16  4612.58  4612.65  4613.53
                             4635.57  4635.69  4635.97  4636.56  4636.71
                             4637.01

 Zero-point correction=                           0.249580 (Hartree/Particle)
 Thermal correction to Energy=                    0.268014
 Thermal correction to Enthalpy=                  0.268958
 Thermal correction to Gibbs Free Energy=         0.199447
 Sum of electronic and zero-point Energies=          -1333.749395
 Sum of electronic and thermal Energies=             -1333.730960
 Sum of electronic and thermal Enthalpies=           -1333.730016
 Sum of electronic and thermal Free Energies=        -1333.799528

                     E (Thermal)             CV                S
                      KCal/Mol        Cal/Mol-Kelvin    Cal/Mol-Kelvin
 Total                  168.181             71.396            146.299
 Electronic               0.000              0.000              0.000
 Translational            0.889              2.981             43.148
 Rotational               0.889              2.981             35.262
 Vibrational            166.404             65.435             67.889
 Vibration     1          0.593              1.985              6.355
 Vibration     2          0.593              1.985              6.295
 Vibration     3          0.594              1.982              5.395
 Vibration     4          0.594              1.982              5.390
 Vibration     5          0.594              1.981              5.254
 Vibration     6          0.595              1.977              4.792
 Vibration     7          0.613              1.920              2.903
 Vibration     8          0.617              1.908              2.732
 Vibration     9          0.617              1.907              2.726
 Vibration    10          0.642              1.827              2.052
 Vibration    11          0.647              1.812              1.968
 Vibration    12          0.647              1.811              1.963
 Vibration    13          0.698              1.659              1.373
 Vibration    14          0.717              1.604              1.231
 Vibration    15          0.717              1.603              1.231
 Vibration    16          0.764              1.476              0.973
 Vibration    17          0.769              1.461              0.948
 Vibration    18          0.769              1.461              0.947
 Vibration    19          0.783              1.425              0.890
 Vibration    20          0.783              1.425              0.890
 Vibration    21          0.787              1.416              0.876
 Vibration    22          0.796              1.394              0.842
 Vibration    23          0.796              1.393              0.842
 Vibration    24          0.821              1.331              0.756
 Vibration    25          0.888              1.177              0.581
 Vibration    26          0.888              1.177              0.580
 Vibration    27          0.890              1.172              0.575
 Vibration    28          0.967              1.015              0.436

 Optimization completed.
    -- Stationary point found.
 Normal termination of Gaussian 16 at Sun Aug 23 15:19:55 2020.
 Gaussian 16:  ES64L-G16RevA.03 25-Dec-2016

 ----------------------------------------------------------------------
 # TD(NStates=10, Root=1) B3LYP/6-31G* scf=qc volume pop=NPA density=cu
 rrent Geom=AllCheck Guess=Read
 ----------------------------------------------------------------------

 Structure from the checkpoint file:  "phosphine_5_conf63.chk"
 -------------------
 Title Card Required
 -------------------
 Charge =  0 Multiplicity = 1

                         Standard orientation:
 ---------------------------------------------------------------------
 Center     Atomic      Atomic             Coordinates (Angstroms)
 Number     Number       Type             X           Y           Z
 ---------------------------------------------------------------------
      1          6           0        4.048212    0.250184    0.700248
      2          6           0        2.759277    0.366455    1.217443
      3          6           0        1.656376   -0.219135    0.571515
      4          6           0        1.884714   -0.950632   -0.604872
      5          6           0        3.170203   -1.087085   -1.130717
      6          6           0        4.230783   -0.479454   -0.469278
      7          9           0        5.475517   -0.607530   -0.972469
      8         15           0        0.001156   -0.000437    1.374617
      9          6           0       -0.637532    1.542560    0.572132
     10          6           0       -0.113086    2.111118   -0.599504
     11          6           0       -0.638673    3.292211   -1.125355
     12          6           0       -1.701419    3.901278   -0.468829
     13          6           0       -2.247189    3.373248    0.696028
     14          6           0       -1.702325    2.199491    1.213428
     15          9           0       -2.214036    5.042740   -0.972142
     16          6           0       -1.016687   -1.323841    0.571390
     17          6           0       -1.065183   -2.570778    1.218869
     18          6           0       -1.811245   -3.628041    0.701163
     19          6           0       -2.530860   -3.421462   -0.470565
     20          6           0       -2.522437   -2.200111   -1.133768
     21          6           0       -1.760785   -1.155957   -0.607282
     22          9           0       -3.264965   -4.434545   -0.974266
     23          1           0        4.904149    0.701268    1.191620
     24          1           0        2.609097    0.918370    2.142096
     25          1           0        1.053745   -1.426116   -1.116724
     26          1           0        3.357476   -1.653636   -2.037307
     27          1           0        0.718901    1.633563   -1.107751
     28          1           0       -0.237776    3.741447   -2.028362
     29          1           0       -3.070660    3.884680    1.183752
     30          1           0       -2.109464    1.789648    2.134534
     31          1           0       -0.514840   -2.716562    2.145157
     32          1           0       -1.851907   -4.594086    1.193767
     33          1           0       -3.103999   -2.079106   -2.042121
     34          1           0       -1.753580   -0.199206   -1.120291
 ---------------------------------------------------------------------

 SCF Done:  E(RB3LYP) =  -1333.99897423     a.u. after    1 cycles

 Excitation energies and oscillator strengths:

 Excited State   1:      Singlet-A      4.5719 eV  271.19 nm  f=0.1339  <S**2>=0.000
      81 -> 82         0.69326
 This state for optimization and/or second-order correction.
 Total Energy, E(TD-HF/TD-DFT) =  -1333.83095916
 Copying the excited state density for this state as the 1-particle RhoCI density.

 Excited State   2:      Singlet-A      4.5764 eV  270.92 nm  f=0.1361  <S**2>=0.000
      81 -> 83         0.69335

 Excited State   3:      Singlet-A      4.5868 eV  270.31 nm  f=0.0102  <S**2>=0.000
      81 -> 84         0.68834

 Excited State   4:      Singlet-A      4.9047 eV  252.78 nm  f=0.0018  <S**2>=0.000
      81 -> 85         0.67638

 Excited State   5:      Singlet-A      4.9070 eV  252.67 nm  f=0.0016  <S**2>=0.000
      81 -> 86         0.67587

 Excited State   6:      Singlet-A      5.2396 eV  236.63 nm  f=0.0075  <S**2>=0.000
      79 -> 82         0.10638
      80 -> 83         0.10763
      81 -> 87         0.67229

 Excited State   7:      Singlet-A      5.4166 eV  228.90 nm  f=0.0001  <S**2>=0.000
      75 -> 84        -0.14122
      77 -> 82         0.18391
      78 -> 83        -0.15984
      79 -> 82         0.27679
      79 -> 83        -0.30080
      79 -> 85        -0.15380
      80 -> 82         0.30116
      80 -> 83         0.26974
      80 -> 86         0.13755

 Excited State   8:      Singlet-A      5.4448 eV  227.71 nm  f=0.0019  <S**2>=0.000
      76 -> 82        -0.21090
      77 -> 83        -0.17325
      77 -> 87         0.12210
      78 -> 82         0.17491
      79 -> 84        -0.30098
      79 -> 86        -0.14056
      80 -> 84         0.39897
      80 -> 85         0.14180
      81 -> 85        -0.12409

 Excited State   9:      Singlet-A      5.4465 eV  227.64 nm  f=0.0021  <S**2>=0.000
      76 -> 83         0.20665
      77 -> 82         0.15804
      78 -> 83         0.18376
      78 -> 87         0.12180
      79 -> 84         0.39306
      79 -> 85        -0.13247
      80 -> 84         0.31093
      80 -> 86        -0.15085
      81 -> 86        -0.12506

 Excited State  10:      Singlet-A      5.6620 eV  218.98 nm  f=0.0044  <S**2>=0.000
      75 -> 84         0.16141
      76 -> 84         0.10155
      77 -> 82        -0.24784
      78 -> 83         0.23053
      79 -> 83        -0.19241
      79 -> 85         0.21431
      79 -> 86        -0.10959
      80 -> 82         0.37655
      80 -> 85        -0.11402
      80 -> 86        -0.23585

 The electronic state is 1-A.
 Alpha  occ. eigenvalues --  -77.09285 -24.70936 -24.70935 -24.70928 -10.27933
 Alpha  occ. eigenvalues --  -10.27931 -10.27923 -10.20803 -10.20802 -10.20797
 Alpha  occ. eigenvalues --  -10.20703 -10.20703 -10.20695 -10.20480 -10.20478
 Alpha  occ. eigenvalues --  -10.20476 -10.20319 -10.20318 -10.20312 -10.20310
 Alpha  occ. eigenvalues --  -10.20310 -10.20305  -6.55986  -4.72247  -4.72247
 Alpha  occ. eigenvalues --   -4.71743  -1.22114  -1.22113  -1.22105  -0.87207
 Alpha  occ. eigenvalues --   -0.86557  -0.86553  -0.77802  -0.76322  -0.76286
 Alpha  occ. eigenvalues --   -0.76283  -0.74869  -0.74865  -0.65458  -0.63138
 Alpha  occ. eigenvalues --   -0.62959  -0.62957  -0.60999  -0.60996  -0.57074
 Alpha  occ. eigenvalues --   -0.54666  -0.54663  -0.54254  -0.49447  -0.49443
 Alpha  occ. eigenvalues --   -0.49382  -0.48019  -0.48018  -0.46312  -0.46308
 Alpha  occ. eigenvalues --   -0.46295  -0.45865  -0.44921  -0.44919  -0.43857
 Alpha  occ. eigenvalues --   -0.43706  -0.43704  -0.42082  -0.40157  -0.40109
 Alpha  occ. eigenvalues --   -0.40106  -0.37164  -0.37156  -0.36438  -0.34998
 Alpha  occ. eigenvalues --   -0.34996  -0.34951  -0.33924  -0.33922  -0.27229
 Alpha  occ. eigenvalues --   -0.26847  -0.26602  -0.26595  -0.25430  -0.25418
 Alpha  occ. eigenvalues --   -0.21919
 Alpha virt. eigenvalues --   -0.02517  -0.02506  -0.02412  -0.01177  -0.01168
 Alpha virt. eigenvalues --   -0.00310   0.05875   0.05897   0.08466   0.10088
 Alpha virt. eigenvalues --    0.10090   0.12846   0.13529   0.13532   0.14052

 Mulliken charges:
               1
     1  C   -0.181733
     2  C   -0.182547
     3  C   -0.122272
     4  C   -0.162570
     5  C   -0.190275
     6  C    0.350833
     7  F   -0.299745
     8  P    0.435765
     9  C   -0.077767
    10  C   -0.151933
    11  C   -0.184170
    12  C    0.391421
    13  C   -0.183784
    14  C   -0.159814
    15  F   -0.281649
    16  C   -0.108911
    17  C   -0.155981
    18  C   -0.200564
    19  C    0.351895
    20  C   -0.178216
    21  C   -0.189993
    22  F   -0.300420
    23  H    0.140557
    24  H    0.129763
    25  H    0.155459
    26  H    0.144368
    27  H    0.179331
    28  H    0.165462
    29  H    0.162319
    30  H    0.159349
    31  H    0.136477
    32  H    0.138734
    33  H    0.141259
    34  H    0.129355
 Sum of Mulliken charges =  -0.00000

 Dipole moment (field-independent basis, Debye):
    X=             -1.0801    Y=              3.3148    Z=              1.4592  Tot=              3.7794
 Quadrupole moment (field-independent basis, Debye-Ang):
   XX=           -143.8291   YY=           -135.2128   ZZ=           -121.8243
   XY=             -5.1934   XZ=             -0.6361   YZ=             -0.7635

 Summary of Natural Population Analysis:

                                       Natural Population
                Natural  -----------------------------------------------
    Atom  No    Charge         Core      Valence    Rydberg      Total
 -----------------------------------------------------------------------
      C    1   -0.29653      1.99900     4.28252    0.01502     6.29653
      C    2   -0.23418      1.99903     4.21861    0.01655     6.23418
      C    3   -0.47534      1.99888     4.44980    0.02666     6.47534
      C    4   -0.21622      1.99900     4.20021    0.01700     6.21622
      C    5   -0.30609      1.99899     4.29179    0.01531     6.30609
      C    6    0.38901      1.99844     3.58465    0.02790     5.61099
      F    7   -0.33507      1.99994     7.32960    0.00552     9.33507
      P    8    1.21022      9.99756     3.74071    0.05150    13.78978
      C    9   -0.38694      1.99891     4.36293    0.02510     6.38694
      C   10   -0.19581      1.99901     4.18071    0.01609     6.19581
      C   11   -0.29709      1.99898     4.28340    0.01471     6.29709
      C   12    0.45573      1.99844     3.51876    0.02707     5.54427
      C   13   -0.30253      1.99899     4.28859    0.01495     6.30253
      C   14   -0.19149      1.99903     4.17724    0.01521     6.19149
      F   15   -0.31900      1.99994     7.31346    0.00560     9.31900
      C   16   -0.45476      1.99887     4.43129    0.02460     6.45476
      C   17   -0.18748      1.99902     4.17305    0.01540     6.18748
      C   18   -0.33265      1.99899     4.31734    0.01632     6.33265
      C   19    0.39268      1.99844     3.58103    0.02785     5.60732
      C   20   -0.28398      1.99899     4.27018    0.01481     6.28398
      C   21   -0.27851      1.99900     4.26066    0.01885     6.27851
      F   22   -0.33549      1.99994     7.33006    0.00550     9.33549
      H   23    0.24803      0.00000     0.75073    0.00124     0.75197
      H   24    0.23221      0.00000     0.76689    0.00089     0.76779
      H   25    0.24965      0.00000     0.74866    0.00169     0.75035
      H   26    0.25076      0.00000     0.74804    0.00120     0.74924
      H   27    0.26354      0.00000     0.73528    0.00119     0.73646
      H   28    0.26063      0.00000     0.73820    0.00117     0.73937
      H   29    0.25874      0.00000     0.74008    0.00118     0.74126
      H   30    0.24829      0.00000     0.75050    0.00121     0.75171
      H   31    0.23675      0.00000     0.76216    0.00109     0.76325
      H   32    0.24812      0.00000     0.75070    0.00118     0.75188
      H   33    0.24884      0.00000     0.74996    0.00121     0.75116
      H   34    0.23595      0.00000     0.76269    0.00135     0.76405
 =======================================================================
   * Total *   -0.00000     51.97740   109.59049    0.43211   162.00000

 Normal termination of Gaussian 16 at Sun Aug 23 15:32:48 2020.
