 Gaussian 16, Revision A.03,

 ---------------------------------
 # opt=CalcAll B3LYP/6-31G* scf=qc
 ---------------------------------

 -------------------
 Title Card Required
 -------------------
 Symbolic Z-matrix:
 Charge =  0 Multiplicity = 1

 SCF Done:  E(RB3LYP) =  -211.362431279     a.u. after   10 cycles
 SCF Done:  E(RB3LYP) =  -211.379693924     a.u. after   11 cycles
 SCF Done:  E(RB3LYP) =  -211.382715760     a.u. after    7 cycles
 SCF Done:  E(RB3LYP) =  -211.382907886     a.u. after    4 cycles
 SCF Done:  E(RB3LYP) =  -211.382909670     a.u. after    2 cycles
 Optimization completed.
    -- Stationary point found.
 Normal termination of Gaussian 16 at Thu Dec 26 12:45:18 2019.

 ----------------------------------------------------------------------
 # freq B3LYP/6-31G* scf=qc volume NMR pop=NPA density=current Geom=All
 Check Guess=Read
 ----------------------------------------------------------------------

 Structure from the checkpoint file:  "solvent_32.chk"
 -------------------
 Title Card Required
 -------------------
 Charge =  0 Multiplicity = 1

 SCF Done:  E(RB3LYP) =  -211.382909670     a.u. after    1 cycles

      1  C    Isotropic =   174.3062   Anisotropy =    23.2239

      2  C    Isotropic =   166.4305   Anisotropy =    16.2476

      3  C    Isotropic =   169.8491   Anisotropy =    26.6930

      4  C    Isotropic =    83.2576   Anisotropy =   312.0115

      5  N    Isotropic =     0.2592   Anisotropy =   455.8112

      6  H    Isotropic =    31.0040   Anisotropy =     9.6214

      7  H    Isotropic =    31.3262   Anisotropy =     7.9904

      8  H    Isotropic =    31.3262   Anisotropy =     7.9905

      9  H    Isotropic =    30.4228   Anisotropy =     6.9546

     10  H    Isotropic =    30.4228   Anisotropy =     6.9545

     11  H    Isotropic =    30.2478   Anisotropy =     6.3173

     12  H    Isotropic =    30.2477   Anisotropy =     6.3175

  Exact polarizability:  59.299  -3.812  38.545   0.000  -0.000  35.920
 Approx polarizability:  81.635 -10.650  54.553   0.001  -0.000  50.773

                      1                      2                      3
                      A                      A                      A
 Frequencies --     99.7963               167.0118               244.0905
 Red. masses --      2.6217                 4.4815                 1.0834
 Frc consts  --      0.0154                 0.0736                 0.0380
 IR Inten    --      4.1803                 6.1202                 0.0113

                      4                      5                      6
                      A                      A                      A
 Frequencies --    347.9674               393.1564               532.5821
 Red. masses --      3.0498                 3.5292                 7.2276
 Frc consts  --      0.2176                 0.3214                 1.2079
 IR Inten    --      0.0917                 0.5697                 0.9805

                      7                      8                      9
                      A                      A                      A
 Frequencies --    752.0311               885.2423               885.4651
 Red. masses --      1.1092                 1.2394                 2.1394
 Frc consts  --      0.3696                 0.5723                 0.9883
 IR Inten    --      3.9448                 0.1251                 1.8366

                     10                     11                     12
                      A                      A                      A
 Frequencies --    962.2683              1051.4614              1122.3057
 Red. masses --      3.6087                 2.6920                 2.0245
 Frc consts  --      1.9687                 1.7536                 1.5024
 IR Inten    --      1.5073                 0.2557                 3.5567

                     13                     14                     15
                      A                      A                      A
 Frequencies --   1144.2217              1275.2841              1322.7088
 Red. masses --      1.4988                 1.2800                 1.3474
 Frc consts  --      1.1562                 1.2265                 1.3889
 IR Inten    --      0.2786                 0.0502                 2.8818

                     16                     17                     18
                      A                      A                      A
 Frequencies --   1341.8175              1405.3260              1444.3234
 Red. masses --      1.0773                 1.4599                 1.2416
 Frc consts  --      1.1428                 1.6988                 1.5261
 IR Inten    --      0.0193                 3.0136                 1.4671

                     19                     20                     21
                      A                      A                      A
 Frequencies --   1499.9219              1522.4524              1529.3528
 Red. masses --      1.0829                 1.0530                 1.0401
 Frc consts  --      1.4354                 1.4380                 1.4334
 IR Inten    --      2.4447                 1.2801                 7.6248

                     22                     23                     24
                      A                      A                      A
 Frequencies --   1537.6504              2369.3209              3046.9249
 Red. masses --      1.0798                12.6046                 1.0406
 Frc consts  --      1.5042                41.6895                 5.6917
 IR Inten    --      5.1832                 9.4232                13.3904

                     25                     26                     27
                      A                      A                      A
 Frequencies --   3048.5926              3064.0667              3079.7806
 Red. masses --      1.0551                 1.0597                 1.1028
 Frc consts  --      5.7778                 5.8617                 6.1627
 IR Inten    --      8.2676                26.5564                 0.6005

                     28                     29                     30
                      A                      A                      A
 Frequencies --   3097.4702              3119.3540              3124.5571
 Red. masses --      1.1041                 1.1046                 1.1012
 Frc consts  --      6.2411                 6.3327                 6.3344
 IR Inten    --      0.1567                55.7597                28.9202

 - Thermochemistry -
 -------------------
 Temperature   298.150 Kelvin.  Pressure   1.00000 Atm.
 Atom     1 has atomic number  6 and mass  12.00000

 Molecular mass:    69.05785 amu.
 Principal axes and moments of inertia in atomic units:
                           1         2         3
     Eigenvalues --    75.70453 805.24816 847.38523
           X            0.99999   0.00439  -0.00000
           Y           -0.00439   0.99999   0.00000
           Z            0.00000  -0.00000   1.00000
 This molecule is an asymmetric top.
 Rotational symmetry number  1.
 Rotational temperatures (Kelvin)      1.14410     0.10756     0.10221
 Rotational constants (GHZ):          23.83928     2.24122     2.12978
 Zero-point vibrational energy     271651.0 (Joules/Mol)
                                   64.92615 (Kcal/Mol)
 Warning -- explicit consideration of   6 degrees of freedom as
           vibrations may cause significant error
 Vibrational temperatures:    143.58   240.29   351.19   500.65   565.66
          (Kelvin)            766.27  1082.01  1273.67  1273.99  1384.49
                             1512.82  1614.75  1646.28  1834.85  1903.08
                             1930.58  2021.95  2078.06  2158.05  2190.47
                             2200.40  2212.34  3408.92  4383.85  4386.24
                             4408.51  4431.12  4456.57  4488.05  4495.54

 Zero-point correction=                           0.103466 (Hartree/Particle)
 Thermal correction to Energy=                    0.109411
 Thermal correction to Enthalpy=                  0.110356
 Thermal correction to Gibbs Free Energy=         0.074482
 Sum of electronic and zero-point Energies=           -211.279443
 Sum of electronic and thermal Energies=              -211.273498
 Sum of electronic and thermal Enthalpies=            -211.272554
 Sum of electronic and thermal Free Energies=         -211.308428

                     E (Thermal)             CV                S
                      KCal/Mol        Cal/Mol-Kelvin    Cal/Mol-Kelvin
 Total                   68.657             19.735             75.502
 Electronic               0.000              0.000              0.000
 Translational            0.889              2.981             38.614
 Rotational               0.889              2.981             25.449
 Vibrational             66.879             13.774             11.439
 Vibration     1          0.604              1.949              3.458
 Vibration     2          0.624              1.883              2.469
 Vibration     3          0.659              1.773              1.773
 Vibration     4          0.726              1.579              1.175
 Vibration     5          0.760              1.485              0.988
 Vibration     6          0.888              1.178              0.581

 Optimization completed.
    -- Stationary point found.
 Normal termination of Gaussian 16 at Thu Dec 26 12:46:13 2019.
 Gaussian 16:  ES64L-G16RevA.03 25-Dec-2016

 ----------------------------------------------------------------------
 # TD(NStates=10, Root=1) B3LYP/6-31G* scf=qc volume pop=NPA density=cu
 rrent Geom=AllCheck Guess=Read
 ----------------------------------------------------------------------

 Structure from the checkpoint file:  "solvent_33.chk"
 -------------------
 Title Card Required
 -------------------
 Charge =  0 Multiplicity = 1

                         Standard orientation:
 ---------------------------------------------------------------------
 Center     Atomic      Atomic             Coordinates (Angstroms)
 Number     Number       Type             X           Y           Z
 ---------------------------------------------------------------------
      1          6           0       -2.313170    0.015069    0.000039
      2          6           0       -0.881089   -0.525048   -0.000042
      3          6           0        0.160521    0.614264   -0.000028
      4          6           0        1.541429    0.121934    0.000003
      5          7           0        2.627980   -0.286781    0.000031
      6          1           0       -3.038080   -0.805564    0.000002
      7          1           0       -2.507361    0.631779   -0.885740
      8          1           0       -2.507308    0.631653    0.885917
      9          1           0       -0.715402   -1.158890   -0.878937
     10          1           0       -0.715334   -1.158976    0.878778
     11          1           0        0.020722    1.255080    0.880097
     12          1           0        0.020758    1.255069   -0.880167
 ---------------------------------------------------------------------

 SCF Done:  E(RB3LYP) =  -211.382909670     a.u. after    1 cycles

 Excitation energies and oscillator strengths:

 Excited State   1:      Singlet-A      7.6983 eV  161.05 nm  f=0.0001  <S**2>=0.000
      18 -> 20         0.56152
      18 -> 22        -0.10301
      19 -> 21        -0.40206
 This state for optimization and/or second-order correction.
 Total Energy, E(TD-HF/TD-DFT) =  -211.100001077
 Copying the excited state density for this state as the 1-particle RhoCI density.

 Excited State   2:      Singlet-A      7.9993 eV  154.99 nm  f=0.0089  <S**2>=0.000
      18 -> 21        -0.47724
      19 -> 20         0.50495

 Excited State   3:      Singlet-A      8.0134 eV  154.72 nm  f=0.0015  <S**2>=0.000
      18 -> 20         0.40004
      19 -> 21         0.56904

 Excited State   4:      Singlet-A      9.2157 eV  134.54 nm  f=0.0145  <S**2>=0.000
      17 -> 20         0.69597

 Excited State   5:      Singlet-A      9.3565 eV  132.51 nm  f=0.0177  <S**2>=0.000
      17 -> 21         0.70255

 Excited State   6:      Singlet-A      9.7250 eV  127.49 nm  f=0.0395  <S**2>=0.000
      15 -> 20        -0.13334
      18 -> 21         0.17271
      19 -> 20         0.26045
      19 -> 22         0.60822

 Excited State   7:      Singlet-A      9.7287 eV  127.44 nm  f=0.0007  <S**2>=0.000
      16 -> 20         0.66388
      18 -> 20         0.10472
      18 -> 22         0.19546

 Excited State   8:      Singlet-A      9.8724 eV  125.59 nm  f=0.0002  <S**2>=0.000
      16 -> 20        -0.21336
      18 -> 22         0.65598

 Excited State   9:      Singlet-A     10.0162 eV  123.78 nm  f=0.0156  <S**2>=0.000
      16 -> 21         0.67622
      18 -> 21         0.14928

 Excited State  10:      Singlet-A     10.1083 eV  122.66 nm  f=0.0268  <S**2>=0.000
      15 -> 20         0.65782
      19 -> 22         0.20764

 The electronic state is 1-A.
 Alpha  occ. eigenvalues --  -14.32909 -10.23747 -10.22464 -10.21086 -10.19445
 Alpha  occ. eigenvalues --   -0.89904  -0.81844  -0.73066  -0.62182  -0.51876
 Alpha  occ. eigenvalues --   -0.49512  -0.44210  -0.42460  -0.39227  -0.37219
 Alpha  occ. eigenvalues --   -0.35955  -0.35166  -0.32029  -0.31860
 Alpha virt. eigenvalues --    0.03549   0.04190   0.07898   0.12015   0.12138
 Alpha virt. eigenvalues --    0.13093   0.15731   0.17208   0.19264   0.20501
 Alpha virt. eigenvalues --    0.22617   0.23925   0.33615   0.49901   0.52597

 Mulliken charges:
               1
     1  C   -0.452535
     2  C   -0.237553
     3  C   -0.328902
     4  C    0.357169
     5  N   -0.443011
     6  H    0.155995
     7  H    0.146440
     8  H    0.146441
     9  H    0.150440
    10  H    0.150441
    11  H    0.177536
    12  H    0.177540
 Sum of Mulliken charges =   0.00000

 Dipole moment (field-independent basis, Debye):
    X=             -2.9939    Y=              0.8922    Z=             -0.0001  Tot=              3.1240
 Quadrupole moment (field-independent basis, Debye-Ang):
   XX=            -41.2156   YY=            -30.9816   ZZ=            -29.9508
   XY=              2.1081   XZ=             -0.0002   YZ=             -0.0001

 Summary of Natural Population Analysis:

                                       Natural Population
                Natural  -----------------------------------------------
    Atom  No    Charge         Core      Valence    Rydberg      Total
 -----------------------------------------------------------------------
      C    1   -0.68587      1.99946     4.67726    0.00916     6.68587
      C    2   -0.45290      1.99933     4.44214    0.01144     6.45290
      C    3   -0.57996      1.99919     4.56498    0.01579     6.57996
      C    4    0.29020      1.99955     3.66181    0.04844     5.70980
      N    5   -0.26674      1.99970     5.23124    0.03580     7.26674
      H    6    0.24148      0.00000     0.75784    0.00068     0.75852
      H    7    0.22637      0.00000     0.77206    0.00157     0.77363
      H    8    0.22637      0.00000     0.77206    0.00157     0.77363
      H    9    0.23909      0.00000     0.75824    0.00267     0.76091
      H   10    0.23909      0.00000     0.75824    0.00267     0.76091
      H   11    0.26143      0.00000     0.73154    0.00702     0.73857
      H   12    0.26144      0.00000     0.73154    0.00702     0.73856
 =======================================================================
   * Total *    0.00000      9.99722    27.85895    0.14383    38.00000

 Normal termination of Gaussian 16 at Thu Dec 26 12:47:53 2019.
