 Gaussian 16, Revision A.03,

 ---------------------------------
 # opt=CalcAll B3LYP/6-31G* scf=qc
 ---------------------------------

 -------------------
 Title Card Required
 -------------------
 Symbolic Z-matrix:
 Charge =  0 Multiplicity = 1

 SCF Done:  E(RB3LYP) =  -386.332295159     a.u. after    9 cycles
 SCF Done:  E(RB3LYP) =  -386.334370775     a.u. after   11 cycles
 SCF Done:  E(RB3LYP) =  -386.334557284     a.u. after   13 cycles
 SCF Done:  E(RB3LYP) =  -386.334514552     a.u. after   11 cycles
 SCF Done:  E(RB3LYP) =  -386.334638045     a.u. after    9 cycles
 SCF Done:  E(RB3LYP) =  -386.334640218     a.u. after    2 cycles
 SCF Done:  E(RB3LYP) =  -386.334640247     a.u. after    2 cycles
 Optimization completed on the basis of negligible forces.
    -- Stationary point found.
 Normal termination of Gaussian 16 at Thu Dec 26 13:08:40 2019.

 ----------------------------------------------------------------------
 # freq B3LYP/6-31G* scf=qc volume NMR pop=NPA density=current Geom=All
 Check Guess=Read
 ----------------------------------------------------------------------

 Structure from the checkpoint file:  "solvent_12.chk"
 -------------------
 Title Card Required
 -------------------
 Charge =  0 Multiplicity = 1

 SCF Done:  E(RB3LYP) =  -386.334640247     a.u. after    1 cycles

      1  C    Isotropic =   173.8988   Anisotropy =    23.4708

      2  C    Isotropic =   168.3781   Anisotropy =    12.9785

      3  C    Isotropic =   157.4450   Anisotropy =    32.7167

      4  C    Isotropic =   125.9338   Anisotropy =    61.4952

      5  O    Isotropic =   134.3177   Anisotropy =   142.8309

      6  C    Isotropic =    29.0632   Anisotropy =    84.0999

      7  C    Isotropic =   169.2835   Anisotropy =    39.9754

      8  O    Isotropic =   -71.7431   Anisotropy =   570.4859

      9  H    Isotropic =    31.0406   Anisotropy =     9.8372

     10  H    Isotropic =    31.2656   Anisotropy =     8.0091

     11  H    Isotropic =    31.2146   Anisotropy =     7.8107

     12  H    Isotropic =    30.9763   Anisotropy =     7.0118

     13  H    Isotropic =    30.8247   Anisotropy =     6.8673

     14  H    Isotropic =    30.3099   Anisotropy =     4.6804

     15  H    Isotropic =    30.7569   Anisotropy =     4.9585

     16  H    Isotropic =    28.8031   Anisotropy =     5.0705

     17  H    Isotropic =    27.5764   Anisotropy =     3.6530

     18  H    Isotropic =    30.2399   Anisotropy =     6.1567

     19  H    Isotropic =    30.6909   Anisotropy =     7.3743

     20  H    Isotropic =    30.2648   Anisotropy =     5.6653

  Exact polarizability:  84.644  -1.893  64.060  -3.191  -1.958  59.722
 Approx polarizability:  92.403  -3.001 100.112  -4.271  -9.375  86.289

                      1                      2                      3
                      A                      A                      A
 Frequencies --     49.1085                59.3531                78.8053
 Red. masses --      1.5278                 2.7153                 1.7483
 Frc consts  --      0.0022                 0.0056                 0.0064
 IR Inten    --      2.5537                 0.2740                 0.3240

                      4                      5                      6
                      A                      A                      A
 Frequencies --     86.0629               121.2985               208.2682
 Red. masses --      2.1709                 2.3918                 3.3661
 Frc consts  --      0.0095                 0.0207                 0.0860
 IR Inten    --      0.9057                 0.5288                 1.5306

                      7                      8                      9
                      A                      A                      A
 Frequencies --    247.5235               302.0895               322.6521
 Red. masses --      1.1221                 2.6401                 3.7676
 Frc consts  --      0.0405                 0.1420                 0.2311
 IR Inten    --      0.4674                 9.3750                 2.3429

                     10                     11                     12
                      A                      A                      A
 Frequencies --    419.4887               484.5252               606.1555
 Red. masses --      2.8013                 3.8161                 2.8600
 Frc consts  --      0.2904                 0.5278                 0.6191
 IR Inten    --      4.0913                 6.0192                 6.7385

                     13                     14                     15
                      A                      A                      A
 Frequencies --    656.1594               751.7043               804.5490
 Red. masses --      4.1903                 1.0733                 1.2818
 Frc consts  --      1.0629                 0.3573                 0.4888
 IR Inten    --      5.7016                 4.4924                 0.8838

                     16                     17                     18
                      A                      A                      A
 Frequencies --    868.2862               917.7273               967.1335
 Red. masses --      2.8030                 1.8336                 1.2886
 Frc consts  --      1.2451                 0.9099                 0.7102
 IR Inten    --     11.6480                 3.4290                 1.6482

                     19                     20                     21
                      A                      A                      A
 Frequencies --    994.5392              1030.0461              1069.4567
 Red. masses --      2.4736                 2.7571                 2.4034
 Frc consts  --      1.4415                 1.7235                 1.6195
 IR Inten    --      2.9207                 8.3543                 3.1421

                     22                     23                     24
                      A                      A                      A
 Frequencies --   1074.8375              1078.5797              1144.1843
 Red. masses --      1.9452                 2.6299                 2.3643
 Frc consts  --      1.3240                 1.8026                 1.8237
 IR Inten    --     25.7031                91.7864                10.1926

                     25                     26                     27
                      A                      A                      A
 Frequencies --   1212.3145              1271.4038              1285.8092
 Red. masses --      1.8567                 2.1357                 1.5741
 Frc consts  --      1.6077                 2.0340                 1.5333
 IR Inten    --      1.6066               232.4181               125.1955

                     28                     29                     30
                      A                      A                      A
 Frequencies --   1314.3261              1345.5517              1351.2079
 Red. masses --      1.4110                 1.0763                 1.1298
 Frc consts  --      1.4361                 1.1481                 1.2154
 IR Inten    --     36.0435                 1.2680                 9.4142

                     31                     32                     33
                      A                      A                      A
 Frequencies --   1405.6193              1420.9463              1440.2423
 Red. masses --      1.4051                 1.3307                 1.3305
 Frc consts  --      1.6357                 1.5831                 1.6261
 IR Inten    --      1.1764                49.7645                 4.0200

                     34                     35                     36
                      A                      A                      A
 Frequencies --   1446.1686              1500.8563              1505.6071
 Red. masses --      1.3718                 1.0515                 1.0467
 Frc consts  --      1.6904                 1.3956                 1.3980
 IR Inten    --      3.1376                12.8949                 7.8964

                     37                     38                     39
                      A                      A                      A
 Frequencies --   1515.3917              1519.6387              1529.2676
 Red. masses --      1.0975                 1.0645                 1.0682
 Frc consts  --      1.4849                 1.4484                 1.4719
 IR Inten    --     10.0326                 0.0608                 1.3133

                     40                     41                     42
                      A                      A                      A
 Frequencies --   1530.0628              1542.2773              1828.7920
 Red. masses --      1.0437                 1.0881                10.4768
 Frc consts  --      1.4397                 1.5250                20.6447
 IR Inten    --      5.5999                 4.4374               202.8861

                     43                     44                     45
                      A                      A                      A
 Frequencies --   3026.0168              3042.5498              3046.1572
 Red. masses --      1.0598                 1.0491                 1.0530
 Frc consts  --      5.7178                 5.7219                 5.7569
 IR Inten    --     21.4211                11.8545                35.6004

                     46                     47                     48
                      A                      A                      A
 Frequencies --   3056.0166              3071.0261              3082.6872
 Red. masses --      1.0955                 1.0370                 1.0624
 Frc consts  --      6.0282                 5.7625                 5.9483
 IR Inten    --     16.2275                 2.6886                30.9864

                     49                     50                     51
                      A                      A                      A
 Frequencies --   3091.8399              3110.7533              3115.1046
 Red. masses --      1.0974                 1.1031                 1.1021
 Frc consts  --      6.1808                 6.2890                 6.3013
 IR Inten    --     15.2537                52.1783                42.2261

                     52                     53                     54
                      A                      A                      A
 Frequencies --   3133.1360              3139.2156              3182.2488
 Red. masses --      1.1006                 1.1102                 1.1033
 Frc consts  --      6.3655                 6.4462                 6.5828
 IR Inten    --      6.7981                29.0193                 8.2172

 - Thermochemistry -
 -------------------
 Temperature   298.150 Kelvin.  Pressure   1.00000 Atm.
 Atom     1 has atomic number  6 and mass  12.00000

 Molecular mass:   116.08373 amu.
 Principal axes and moments of inertia in atomic units:
                           1         2         3
     Eigenvalues --   337.187482259.728052340.33188
           X            0.99995   0.00861  -0.00544
           Y           -0.00787   0.99214   0.12488
           Z            0.00647  -0.12483   0.99216
 This molecule is an asymmetric top.
 Rotational symmetry number  1.
 Rotational temperatures (Kelvin)      0.25687     0.03833     0.03701
 Rotational constants (GHZ):           5.35234     0.79865     0.77115
 Zero-point vibrational energy     462983.3 (Joules/Mol)
                                  110.65567 (Kcal/Mol)
 Warning -- explicit consideration of  12 degrees of freedom as
           vibrations may cause significant error
 Vibrational temperatures:     70.66    85.40   113.38   123.83   174.52
          (Kelvin)            299.65   356.13   434.64   464.22   603.55
                              697.12   872.12   944.07  1081.53  1157.57
                             1249.27  1320.40  1391.49  1430.92  1482.01
                             1538.71  1546.45  1551.84  1646.23  1744.25
                             1829.27  1849.99  1891.02  1935.95  1944.09
                             2022.37  2044.42  2072.19  2080.71  2159.40
                             2166.23  2180.31  2186.42  2200.27  2201.42
                             2218.99  2631.22  4353.76  4377.55  4382.74
                             4396.93  4418.52  4435.30  4448.47  4475.68
                             4481.94  4507.88  4516.63  4578.55

 Zero-point correction=                           0.176341 (Hartree/Particle)
 Thermal correction to Energy=                    0.186348
 Thermal correction to Enthalpy=                  0.187292
 Thermal correction to Gibbs Free Energy=         0.139915
 Sum of electronic and zero-point Energies=           -386.158299
 Sum of electronic and thermal Energies=              -386.148293
 Sum of electronic and thermal Enthalpies=            -386.147349
 Sum of electronic and thermal Free Energies=         -386.194725

                     E (Thermal)             CV                S
                      KCal/Mol        Cal/Mol-Kelvin    Cal/Mol-Kelvin
 Total                  116.935             33.808             99.712
 Electronic               0.000              0.000              0.000
 Translational            0.889              2.981             40.163
 Rotational               0.889              2.981             28.968
 Vibrational            115.157             27.846             30.581
 Vibration     1          0.595              1.978              4.853
 Vibration     2          0.597              1.974              4.479
 Vibration     3          0.600              1.963              3.920
 Vibration     4          0.601              1.959              3.748
 Vibration     5          0.609              1.931              3.080
 Vibration     6          0.642              1.828              2.059
 Vibration     7          0.661              1.767              1.748
 Vibration     8          0.694              1.670              1.405
 Vibration     9          0.708              1.630              1.297
 Vibration    10          0.782              1.428              0.894
 Vibration    11          0.841              1.284              0.698
 Vibration    12          0.965              1.019              0.439

 Optimization completed on the basis of negligible forces.
    -- Stationary point found.
 Normal termination of Gaussian 16 at Thu Dec 26 13:11:55 2019.
 Gaussian 16:  ES64L-G16RevA.03 25-Dec-2016

 ----------------------------------------------------------------------
 # TD(NStates=10, Root=1) B3LYP/6-31G* scf=qc volume pop=NPA density=cu
 rrent Geom=AllCheck Guess=Read
 ----------------------------------------------------------------------

 Structure from the checkpoint file:  "solvent_13.chk"
 -------------------
 Title Card Required
 -------------------
 Charge =  0 Multiplicity = 1

                         Standard orientation:
 ---------------------------------------------------------------------
 Center     Atomic      Atomic             Coordinates (Angstroms)
 Number     Number       Type             X           Y           Z
 ---------------------------------------------------------------------
      1          6           0        3.637483    0.513017    0.509804
      2          6           0        2.569155   -0.166631   -0.352823
      3          6           0        1.176056   -0.134200    0.290399
      4          6           0        0.124366   -0.814342   -0.579922
      5          8           0       -1.164345   -0.859155    0.076452
      6          6           0       -1.959086    0.227393   -0.071700
      7          6           0       -3.263340    0.036182    0.668050
      8          8           0       -1.655475    1.208926   -0.714438
      9          1           0        4.620489    0.477285    0.027055
     10          1           0        3.727388    0.024135    1.487502
     11          1           0        3.390334    1.566527    0.687329
     12          1           0        2.861248   -1.209529   -0.542081
     13          1           0        2.527485    0.323195   -1.335592
     14          1           0        0.871010    0.904930    0.463428
     15          1           0        1.203914   -0.631544    1.269233
     16          1           0        0.376464   -1.863667   -0.758419
     17          1           0        0.015879   -0.300058   -1.538718
     18          1           0       -3.779755   -0.855651    0.298251
     19          1           0       -3.892738    0.915594    0.528060
     20          1           0       -3.070964   -0.117897    1.734985
 ---------------------------------------------------------------------

 SCF Done:  E(RB3LYP) =  -386.334640247     a.u. after    1 cycles

 Excitation energies and oscillator strengths:

 Excited State   1:      Singlet-A      5.8039 eV  213.62 nm  f=0.0012  <S**2>=0.000
      32 -> 33         0.70350
 This state for optimization and/or second-order correction.
 Total Energy, E(TD-HF/TD-DFT) =  -386.121351572
 Copying the excited state density for this state as the 1-particle RhoCI density.

 Excited State   2:      Singlet-A      7.7608 eV  159.76 nm  f=0.1002  <S**2>=0.000
      31 -> 33         0.67744

 Excited State   3:      Singlet-A      8.2348 eV  150.56 nm  f=0.0020  <S**2>=0.000
      25 -> 33         0.11330
      26 -> 33        -0.11410
      27 -> 33         0.11316
      28 -> 33         0.26787
      29 -> 33         0.44670
      30 -> 33         0.42782

 Excited State   4:      Singlet-A      8.7145 eV  142.27 nm  f=0.0048  <S**2>=0.000
      26 -> 33         0.15066
      29 -> 33        -0.43213
      30 -> 33         0.52922

 Excited State   5:      Singlet-A      9.0021 eV  137.73 nm  f=0.0011  <S**2>=0.000
      28 -> 33         0.10957
      32 -> 34         0.67156
      32 -> 37        -0.12255

 Excited State   6:      Singlet-A      9.0379 eV  137.18 nm  f=0.0008  <S**2>=0.000
      28 -> 33         0.61429
      29 -> 33        -0.24802
      30 -> 33        -0.16817
      32 -> 34        -0.12148

 Excited State   7:      Singlet-A      9.2426 eV  134.14 nm  f=0.1183  <S**2>=0.000
      27 -> 33         0.37884
      32 -> 35         0.57720

 Excited State   8:      Singlet-A      9.3076 eV  133.21 nm  f=0.0135  <S**2>=0.000
      26 -> 33         0.12504
      27 -> 33         0.50991
      31 -> 34        -0.15333
      32 -> 35        -0.37781
      32 -> 38        -0.11705

 Excited State   9:      Singlet-A      9.4671 eV  130.96 nm  f=0.0016  <S**2>=0.000
      31 -> 34         0.65410

 Excited State  10:      Singlet-A      9.6148 eV  128.95 nm  f=0.0377  <S**2>=0.000
      22 -> 33         0.13034
      23 -> 33        -0.11623
      25 -> 33        -0.15781
      26 -> 33         0.55490
      29 -> 33         0.17578
      32 -> 37        -0.20720
      32 -> 38         0.18265

 The electronic state is 1-A.
 Alpha  occ. eigenvalues --  -19.18471 -19.13082 -10.31282 -10.23733 -10.19382
 Alpha  occ. eigenvalues --  -10.18679 -10.18361 -10.17641  -1.09346  -1.00798
 Alpha  occ. eigenvalues --   -0.80162  -0.75915  -0.71763  -0.64848  -0.58822
 Alpha  occ. eigenvalues --   -0.55283  -0.50055  -0.47435  -0.46801  -0.45903
 Alpha  occ. eigenvalues --   -0.43183  -0.41822  -0.40543  -0.39652  -0.38252
 Alpha  occ. eigenvalues --   -0.37193  -0.34781  -0.34340  -0.33465  -0.32886
 Alpha  occ. eigenvalues --   -0.29056  -0.26727
 Alpha virt. eigenvalues --    0.01633   0.09123   0.10942   0.12214   0.12492
 Alpha virt. eigenvalues --    0.13162   0.14616   0.16220   0.17241   0.17457
 Alpha virt. eigenvalues --    0.17835   0.19075   0.19516   0.20140   0.23333

 Mulliken charges:
               1
     1  C   -0.440664
     2  C   -0.259244
     3  C   -0.265523
     4  C   -0.055976
     5  O   -0.443534
     6  C    0.462388
     7  C   -0.490380
     8  O   -0.303557
     9  H    0.145159
    10  H    0.144981
    11  H    0.146999
    12  H    0.133860
    13  H    0.137402
    14  H    0.152585
    15  H    0.145441
    16  H    0.151786
    17  H    0.156824
    18  H    0.160979
    19  H    0.160713
    20  H    0.159762
 Sum of Mulliken charges =  -0.00000

 Dipole moment (field-independent basis, Debye):
    X=              0.9991    Y=             -0.5783    Z=              0.0861  Tot=              1.1576
 Quadrupole moment (field-independent basis, Debye-Ang):
   XX=            -47.0983   YY=            -51.2223   ZZ=            -50.0295
   XY=             -0.6540   XZ=             -1.6280   YZ=              1.4050

 Summary of Natural Population Analysis:

                                       Natural Population
                Natural  -----------------------------------------------
    Atom  No    Charge         Core      Valence    Rydberg      Total
 -----------------------------------------------------------------------
      C    1   -0.67222      1.99947     4.66512    0.00763     6.67222
      C    2   -0.45888      1.99935     4.44962    0.00992     6.45888
      C    3   -0.48845      1.99932     4.47725    0.01189     6.48845
      C    4   -0.10448      1.99924     4.08616    0.01908     6.10448
      O    5   -0.51973      1.99977     6.50828    0.01167     8.51973
      C    6    0.48792      1.99952     3.47223    0.04032     5.51208
      C    7   -0.71852      1.99937     4.71175    0.00740     6.71852
      O    8   -0.28504      1.99981     6.26508    0.02015     8.28504
      H    9    0.23329      0.00000     0.76586    0.00084     0.76671
      H   10    0.22608      0.00000     0.77286    0.00105     0.77392
      H   11    0.22723      0.00000     0.77172    0.00105     0.77277
      H   12    0.22727      0.00000     0.77101    0.00173     0.77273
      H   13    0.22908      0.00000     0.76922    0.00171     0.77092
      H   14    0.23742      0.00000     0.76030    0.00228     0.76258
      H   15    0.23581      0.00000     0.76209    0.00210     0.76419
      H   16    0.22579      0.00000     0.77283    0.00138     0.77421
      H   17    0.21496      0.00000     0.78293    0.00211     0.78504
      H   18    0.23070      0.00000     0.76480    0.00451     0.76930
      H   19    0.24260      0.00000     0.75669    0.00071     0.75740
      H   20    0.22919      0.00000     0.76615    0.00466     0.77081
 =======================================================================
   * Total *   -0.00000     15.99584    47.85195    0.15221    64.00000

 Normal termination of Gaussian 16 at Thu Dec 26 13:16:33 2019.
