 Gaussian 16, Revision A.03,

 ---------------------------------
 # opt=CalcAll B3LYP/6-31G* scf=qc
 ---------------------------------

 -------------------
 Title Card Required
 -------------------
 Symbolic Z-matrix:
 Charge =  0 Multiplicity = 1

 SCF Done:  E(RB3LYP) =  -287.825904862     a.u. after    9 cycles
 SCF Done:  E(RB3LYP) =  -287.828093241     a.u. after   11 cycles
 SCF Done:  E(RB3LYP) =  -287.829553454     a.u. after   13 cycles
 SCF Done:  E(RB3LYP) =  -287.830113549     a.u. after   11 cycles
 SCF Done:  E(RB3LYP) =  -287.830196736     a.u. after    9 cycles
 SCF Done:  E(RB3LYP) =  -287.830205394     a.u. after    4 cycles
 SCF Done:  E(RB3LYP) =  -287.830205494     a.u. after    2 cycles
 SCF Done:  E(RB3LYP) =  -287.830205604     a.u. after    2 cycles
 Optimization completed.
    -- Stationary point found.
 Normal termination of Gaussian 16 at Thu Dec 26 12:58:01 2019.

 ----------------------------------------------------------------------
 # freq B3LYP/6-31G* scf=qc volume NMR pop=NPA density=current Geom=All
 Check Guess=Read
 ----------------------------------------------------------------------

 Structure from the checkpoint file:  "solvent_42.chk"
 -------------------
 Title Card Required
 -------------------
 Charge =  0 Multiplicity = 1

 SCF Done:  E(RB3LYP) =  -287.830205604     a.u. after    1 cycles

      1  C    Isotropic =   168.5892   Anisotropy =    30.1805

      2  C    Isotropic =    33.7389   Anisotropy =    96.6573

      3  N    Isotropic =   155.0284   Anisotropy =   111.8179

      4  C    Isotropic =   157.9801   Anisotropy =    45.6484

      5  C    Isotropic =   153.8133   Anisotropy =    48.9659

      6  O    Isotropic =   -65.8556   Anisotropy =   569.4492

      7  H    Isotropic =    30.3190   Anisotropy =     5.5702

      8  H    Isotropic =    30.3191   Anisotropy =     5.5703

      9  H    Isotropic =    30.5050   Anisotropy =     6.9735

     10  H    Isotropic =    27.7382   Anisotropy =     6.7158

     11  H    Isotropic =    30.2705   Anisotropy =     8.9614

     12  H    Isotropic =    30.2706   Anisotropy =     8.9613

     13  H    Isotropic =    29.1692   Anisotropy =     4.6987

     14  H    Isotropic =    29.5789   Anisotropy =     8.3681

     15  H    Isotropic =    29.5788   Anisotropy =     8.3682

  Exact polarizability:  62.738  -2.349  55.654   0.000  -0.000  38.911
 Approx polarizability:  81.491 -11.084  81.866  -0.000   0.000  54.671

                      1                      2                      3
                      A                      A                      A
 Frequencies --     56.3558               106.5660               152.5870
 Red. masses --      1.3720                 1.6957                 1.3607
 Frc consts  --      0.0026                 0.0113                 0.0187
 IR Inten    --      0.0062                 1.1947                 0.6018

                      4                      5                      6
                      A                      A                      A
 Frequencies --    189.4777               245.5346               324.0063
 Red. masses --      1.1830                 1.6158                 3.0479
 Frc consts  --      0.0250                 0.0574                 0.1885
 IR Inten    --      1.9834                 3.8513                 5.0176

                      7                      8                      9
                      A                      A                      A
 Frequencies --    402.6083               466.6030               589.6691
 Red. masses --      2.5011                 3.0036                 2.8515
 Frc consts  --      0.2389                 0.3853                 0.5842
 IR Inten    --      2.0927                 8.7957                 4.5370

                     10                     11                     12
                      A                      A                      A
 Frequencies --    591.9468               735.6003               975.3382
 Red. masses --      4.9218                 3.7021                 2.5177
 Frc consts  --      1.0161                 1.1803                 1.4111
 IR Inten    --      9.2565                 0.8665                 0.2929

                     13                     14                     15
                      A                      A                      A
 Frequencies --   1033.2663              1059.8125              1089.4193
 Red. masses --      1.6016                 1.7071                 1.3601
 Frc consts  --      1.0074                 1.1297                 0.9511
 IR Inten    --     65.9817                 4.3748                 3.5245

                     16                     17                     18
                      A                      A                      A
 Frequencies --   1139.8430              1187.7931              1208.0083
 Red. masses --      1.2199                 1.3617                 2.2055
 Frc consts  --      0.9338                 1.1319                 1.8963
 IR Inten    --      0.0439                 1.6300                86.5573

                     19                     20                     21
                      A                      A                      A
 Frequencies --   1294.0202              1410.0137              1442.8617
 Red. masses --      5.7339                 1.3179                 1.7757
 Frc consts  --      5.6570                 1.5437                 2.1780
 IR Inten    --     44.6522                 8.3811               111.0504

                     22                     23                     24
                      A                      A                      A
 Frequencies --   1454.9667              1489.9785              1506.2295
 Red. masses --      1.4620                 1.1279                 1.0433
 Frc consts  --      1.8235                 1.4753                 1.3945
 IR Inten    --     72.3059                 6.1998                 8.7195

                     25                     26                     27
                      A                      A                      A
 Frequencies --   1512.4601              1527.1924              1533.3253
 Red. masses --      1.1123                 1.0429                 1.0730
 Frc consts  --      1.4991                 1.4332                 1.4863
 IR Inten    --     17.4931                10.0354                 8.1838

                     28                     29                     30
                      A                      A                      A
 Frequencies --   1533.4142              1567.2304              1766.4696
 Red. masses --      1.0460                 1.2067                 9.1362
 Frc consts  --      1.4490                 1.7463                16.7969
 IR Inten    --      5.7151                28.5719               303.2626

                     31                     32                     33
                      A                      A                      A
 Frequencies --   3019.5048              3029.9284              3057.3693
 Red. masses --      1.0409                 1.0402                 1.0396
 Frc consts  --      5.5916                 5.6265                 5.7257
 IR Inten    --     38.5087                84.8145                 7.9072

                     34                     35                     36
                      A                      A                      A
 Frequencies --   3059.0770              3072.3440              3117.6136
 Red. masses --      1.1042                 1.1048                 1.1013
 Frc consts  --      6.0882                 6.1442                 6.3066
 IR Inten    --     49.9317                33.2253                13.5087

                     37                     38                     39
                      A                      A                      A
 Frequencies --   3176.4163              3187.5131              3192.1843
 Red. masses --      1.0993                 1.0930                 1.0952
 Frc consts  --      6.5352                 6.5428                 6.5756
 IR Inten    --      8.8247                10.7858                 2.5569

 - Thermochemistry -
 -------------------
 Temperature   298.150 Kelvin.  Pressure   1.00000 Atm.
 Atom     1 has atomic number  6 and mass  12.00000

 Molecular mass:    87.06841 amu.
 Principal axes and moments of inertia in atomic units:
                           1         2         3
     Eigenvalues --   368.70280 534.34878 869.00959
           X            0.99283   0.11955   0.00000
           Y           -0.11955   0.99283  -0.00000
           Z           -0.00000   0.00000   1.00000
 This molecule is an asymmetric top.
 Rotational symmetry number  1.
 Rotational temperatures (Kelvin)      0.23492     0.16209     0.09967
 Rotational constants (GHZ):           4.89484     3.37746     2.07678
 Zero-point vibrational energy     343953.6 (Joules/Mol)
                                   82.20688 (Kcal/Mol)
 Warning -- explicit consideration of  10 degrees of freedom as
           vibrations may cause significant error
 Vibrational temperatures:     81.08   153.32   219.54   272.62   353.27
          (Kelvin)            466.17   579.26   671.34   848.40   851.68
                             1058.36  1403.29  1486.64  1524.83  1567.43
                             1639.98  1708.97  1738.05  1861.81  2028.70
                             2075.96  2093.37  2143.75  2167.13  2176.09
                             2197.29  2206.11  2206.24  2254.90  2541.56
                             4344.39  4359.39  4398.87  4401.33  4420.42
                             4485.55  4570.15  4586.12  4592.84

 Zero-point correction=                           0.131005 (Hartree/Particle)
 Thermal correction to Energy=                    0.138714
 Thermal correction to Enthalpy=                  0.139658
 Thermal correction to Gibbs Free Energy=         0.099133
 Sum of electronic and zero-point Energies=           -287.699201
 Sum of electronic and thermal Energies=              -287.691491
 Sum of electronic and thermal Enthalpies=            -287.690547
 Sum of electronic and thermal Free Energies=         -287.731073

                     E (Thermal)             CV                S
                      KCal/Mol        Cal/Mol-Kelvin    Cal/Mol-Kelvin
 Total                   87.045             25.644             85.293
 Electronic               0.000              0.000              0.000
 Translational            0.889              2.981             39.305
 Rotational               0.889              2.981             26.640
 Vibrational             85.267             19.683             19.348
 Vibration     1          0.596              1.975              4.581
 Vibration     2          0.605              1.944              3.331
 Vibration     3          0.619              1.900              2.640
 Vibration     4          0.633              1.854              2.233
 Vibration     5          0.660              1.770              1.762
 Vibration     6          0.709              1.627              1.290
 Vibration     7          0.768              1.464              0.953
 Vibration     8          0.824              1.324              0.747
 Vibration     9          0.947              1.054              0.468
 Vibration    10          0.949              1.049              0.464

 Optimization completed.
    -- Stationary point found.
 Normal termination of Gaussian 16 at Thu Dec 26 12:59:44 2019.
 Gaussian 16:  ES64L-G16RevA.03 25-Dec-2016

 ----------------------------------------------------------------------
 # TD(NStates=10, Root=1) B3LYP/6-31G* scf=qc volume pop=NPA density=cu
 rrent Geom=AllCheck Guess=Read
 ----------------------------------------------------------------------

 Structure from the checkpoint file:  "solvent_43.chk"
 -------------------
 Title Card Required
 -------------------
 Charge =  0 Multiplicity = 1

                         Standard orientation:
 ---------------------------------------------------------------------
 Center     Atomic      Atomic             Coordinates (Angstroms)
 Number     Number       Type             X           Y           Z
 ---------------------------------------------------------------------
      1          6           0        1.778927    0.813060   -0.000000
      2          6           0        0.728844   -0.293531    0.000003
      3          7           0       -0.596268    0.083536    0.000016
      4          6           0       -1.624367   -0.945828   -0.000002
      5          6           0       -1.083318    1.450316   -0.000005
      6          8           0        1.067361   -1.472769   -0.000005
      7          1           0        1.702781    1.453648    0.885973
      8          1           0        1.702808    1.453608   -0.886004
      9          1           0        2.754956    0.327095    0.000025
     10          1           0       -1.134616   -1.918463    0.000018
     11          1           0       -2.261944   -0.854558   -0.889881
     12          1           0       -2.261986   -0.854541    0.889845
     13          1           0       -0.261057    2.164086    0.000056
     14          1           0       -1.703287    1.641201    0.887566
     15          1           0       -1.703178    1.641223   -0.887648
 ---------------------------------------------------------------------

 SCF Done:  E(RB3LYP) =  -287.830205604     a.u. after    1 cycles

 Excitation energies and oscillator strengths:

 Excited State   1:      Singlet-A      5.6161 eV  220.76 nm  f=0.0009  <S**2>=0.000
      23 -> 25         0.70427
 This state for optimization and/or second-order correction.
 Total Energy, E(TD-HF/TD-DFT) =  -287.623816935
 Copying the excited state density for this state as the 1-particle RhoCI density.

 Excited State   2:      Singlet-A      6.9493 eV  178.41 nm  f=0.2223  <S**2>=0.000
      24 -> 25         0.68901

 Excited State   3:      Singlet-A      7.6198 eV  162.71 nm  f=0.0264  <S**2>=0.000
      24 -> 26         0.70496

 Excited State   4:      Singlet-A      7.9427 eV  156.10 nm  f=0.0121  <S**2>=0.000
      23 -> 26         0.70293

 Excited State   5:      Singlet-A      8.3957 eV  147.68 nm  f=0.0172  <S**2>=0.000
      24 -> 27         0.69975

 Excited State   6:      Singlet-A      8.7130 eV  142.30 nm  f=0.0073  <S**2>=0.000
      23 -> 27         0.70102

 Excited State   7:      Singlet-A      9.1442 eV  135.59 nm  f=0.0005  <S**2>=0.000
      24 -> 28         0.66976
      24 -> 29        -0.19365

 Excited State   8:      Singlet-A      9.3395 eV  132.75 nm  f=0.0026  <S**2>=0.000
      24 -> 28         0.18936
      24 -> 29         0.64130
      24 -> 30         0.19474

 Excited State   9:      Singlet-A      9.3650 eV  132.39 nm  f=0.0150  <S**2>=0.000
      22 -> 25         0.11824
      23 -> 28         0.64082
      23 -> 29         0.24678

 Excited State  10:      Singlet-A      9.4858 eV  130.70 nm  f=0.0003  <S**2>=0.000
      24 -> 29        -0.19421
      24 -> 30         0.66977

 The electronic state is 1-A.
 Alpha  occ. eigenvalues --  -19.10005 -14.36076 -10.28007 -10.22619 -10.20870
 Alpha  occ. eigenvalues --  -10.18770  -1.02161  -0.92713  -0.74702  -0.71945
 Alpha  occ. eigenvalues --   -0.67473  -0.54208  -0.48947  -0.47700  -0.46926
 Alpha  occ. eigenvalues --   -0.42636  -0.40525  -0.40418  -0.39978  -0.38767
 Alpha  occ. eigenvalues --   -0.37294  -0.34725  -0.23968  -0.23380
 Alpha virt. eigenvalues --    0.03388   0.08321   0.11300   0.14289   0.14866
 Alpha virt. eigenvalues --    0.15498   0.15875   0.16748   0.18140   0.18403
 Alpha virt. eigenvalues --    0.19409   0.21892   0.26043   0.32748   0.38040

 Mulliken charges:
               1
     1  C   -0.517293
     2  C    0.462343
     3  N   -0.395470
     4  C   -0.309583
     5  C   -0.302574
     6  O   -0.338968
     7  H    0.151360
     8  H    0.151359
     9  H    0.168738
    10  H    0.180961
    11  H    0.143899
    12  H    0.143901
    13  H    0.169644
    14  H    0.145844
    15  H    0.145840
 Sum of Mulliken charges =  -0.00000

 Dipole moment (field-independent basis, Debye):
    X=             -1.2357    Y=              1.6384    Z=              0.0000  Tot=              2.0521
 Quadrupole moment (field-independent basis, Debye-Ang):
   XX=            -35.5302   YY=            -37.7925   ZZ=            -38.5793
   XY=              2.2332   XZ=             -0.0000   YZ=              0.0001

 Summary of Natural Population Analysis:

                                       Natural Population
                Natural  -----------------------------------------------
    Atom  No    Charge         Core      Valence    Rydberg      Total
 -----------------------------------------------------------------------
      C    1   -0.71580      1.99937     4.70930    0.00714     6.71580
      C    2    0.37787      1.99940     3.58626    0.03647     5.62213
      N    3   -0.46828      1.99935     5.45833    0.01061     7.46828
      C    4   -0.45901      1.99948     4.44756    0.01196     6.45901
      C    5   -0.45616      1.99946     4.44532    0.01138     6.45616
      O    6   -0.28910      1.99983     6.27046    0.01882     8.28910
      H    7    0.21933      0.00000     0.77550    0.00516     0.78067
      H    8    0.21933      0.00000     0.77550    0.00516     0.78067
      H    9    0.25275      0.00000     0.74643    0.00082     0.74725
      H   10    0.24084      0.00000     0.75824    0.00092     0.75916
      H   11    0.20938      0.00000     0.78739    0.00322     0.79062
      H   12    0.20939      0.00000     0.78739    0.00322     0.79061
      H   13    0.23629      0.00000     0.76308    0.00063     0.76371
      H   14    0.21159      0.00000     0.78530    0.00311     0.78841
      H   15    0.21158      0.00000     0.78531    0.00311     0.78842
 =======================================================================
   * Total *   -0.00000     11.99689    35.88138    0.12173    48.00000

 Normal termination of Gaussian 16 at Thu Dec 26 13:02:25 2019.
