 Gaussian 16, Revision A.03,

 ---------------------------------
 # opt=CalcAll B3LYP/6-31G* scf=qc
 ---------------------------------

 -------------------
 Title Card Required
 -------------------
 Symbolic Z-matrix:
 Charge =  0 Multiplicity = 1

 SCF Done:  E(RB3LYP) =  -310.883410169     a.u. after    6 cycles
 SCF Done:  E(RB3LYP) =  -310.884500586     a.u. after   11 cycles
 SCF Done:  E(RB3LYP) =  -310.884511418     a.u. after   10 cycles
 SCF Done:  E(RB3LYP) =  -310.884513488     a.u. after    7 cycles
 SCF Done:  E(RB3LYP) =  -310.884513974     a.u. after    4 cycles
 SCF Done:  E(RB3LYP) =  -310.884513993     a.u. after    3 cycles
 SCF Done:  E(RB3LYP) =  -310.884514007     a.u. after    4 cycles
 Optimization completed on the basis of negligible forces.
    -- Stationary point found.

 1\1\GINC-DELLA-R4C2N13\Freq\RB3LYP\6-31G(d)\C8H10\BJS4\26-Dec-2019\0\\
 # opt=CalcAll B3LYP/6-31G* scf=qc\\Title Card Required\\0,1\C,1.017789
 4449,0.0895986886,0.0642057957\C,2.5212446728,0.1073534859,-0.08916200
 11\C,3.2265201026,1.3140857442,-0.1755276309\C,4.6100507989,1.33036757
 17,-0.3499469133\C,5.34314558,0.1405552631,-0.4393557034\C,6.846605901
 7,0.1580961978,-0.5926978328\C,4.6378358906,-1.066240676,-0.352992497\
 C,3.2543744321,-1.0825216484,-0.1785759101\H,0.659070035,0.9726781264,
 0.6041146794\H,0.6804486216,-0.7989053011,0.6090204188\H,0.5151967854,

 Normal termination of Gaussian 16 at Thu Dec 26 13:07:32 2019.

 ----------------------------------------------------------------------
 # freq B3LYP/6-31G* scf=qc volume NMR pop=NPA density=current Geom=All
 Check Guess=Read
 ----------------------------------------------------------------------

 Structure from the checkpoint file:  "solvent_22.chk"
 -------------------
 Title Card Required
 -------------------
 Charge =  0 Multiplicity = 1

 SCF Done:  E(RB3LYP) =  -310.884514007     a.u. after    1 cycles

      1  C    Isotropic =   167.9050   Anisotropy =    34.2593

      2  C    Isotropic =    61.6681   Anisotropy =   176.7299

      3  C    Isotropic =    67.5063   Anisotropy =   147.9330

      4  C    Isotropic =    67.5065   Anisotropy =   147.9346

      5  C    Isotropic =    61.6681   Anisotropy =   176.7299

      6  C    Isotropic =   167.9049   Anisotropy =    34.2594

      7  C    Isotropic =    67.5103   Anisotropy =   148.0586

      8  C    Isotropic =    67.5104   Anisotropy =   148.0604

      9  H    Isotropic =    30.1558   Anisotropy =     7.2488

     10  H    Isotropic =    30.1482   Anisotropy =     7.2584

     11  H    Isotropic =    29.7906   Anisotropy =     8.2516

     12  H    Isotropic =    25.2173   Anisotropy =     6.5425

     13  H    Isotropic =    25.2173   Anisotropy =     6.5426

     14  H    Isotropic =    30.1556   Anisotropy =     7.2489

     15  H    Isotropic =    30.1483   Anisotropy =     7.2583

     16  H    Isotropic =    29.7906   Anisotropy =     8.2516

     17  H    Isotropic =    25.2146   Anisotropy =     6.5495

     18  H    Isotropic =    25.2146   Anisotropy =     6.5496

  Exact polarizability: 112.228  -0.000  86.406   0.668  -0.000  40.582
 Approx polarizability: 159.571  -0.000 145.451   0.669  -0.000  59.209

                      1                      2                      3
                      A                      A                      A
 Frequencies --     14.4092                41.0918               136.5211
 Red. masses --      1.0093                 1.0597                 2.9751
 Frc consts  --      0.0001                 0.0011                 0.0327
 IR Inten    --      0.5304                 0.0001                 1.5464

                      4                      5                      6
                      A                      A                      A
 Frequencies --    285.7264               308.7328               385.3970
 Red. masses --      2.5434                 3.2772                 2.5030
 Frc consts  --      0.1223                 0.1840                 0.2190
 IR Inten    --      0.4644                 0.0000                 0.0000

                      7                      8                      9
                      A                      A                      A
 Frequencies --    418.8803               463.7018               499.8963
 Red. masses --      3.0392                 4.7788                 2.4573
 Frc consts  --      0.3142                 0.6054                 0.3618
 IR Inten    --      0.0141                 0.0000                10.5147

                     10                     11                     12
                      A                      A                      A
 Frequencies --    660.0421               718.6590               730.9700
 Red. masses --      6.7700                 3.3581                 3.7717
 Frc consts  --      1.7377                 1.0219                 1.1874
 IR Inten    --      0.0000                 0.0000                 0.1212

                     13                     14                     15
                      A                      A                      A
 Frequencies --    814.9102               840.5396               856.9089
 Red. masses --      1.2924                 5.2435                 1.2509
 Frc consts  --      0.5057                 2.1827                 0.5412
 IR Inten    --     27.0133                 0.0000                 0.0000

                     16                     17                     18
                      A                      A                      A
 Frequencies --    957.8633               959.7977              1001.1141
 Red. masses --      1.2384                 1.3402                 1.4680
 Frc consts  --      0.6695                 0.7274                 0.8668
 IR Inten    --      0.0000                 0.0062                 0.1650

                     19                     20                     21
                      A                      A                      A
 Frequencies --   1037.4014              1041.5193              1073.8037
 Red. masses --      1.3244                 2.9396                 1.5083
 Frc consts  --      0.8398                 1.8788                 1.0247
 IR Inten    --      0.0003                 0.9105                 0.0000

                     22                     23                     24
                      A                      A                      A
 Frequencies --   1077.3875              1153.0938              1220.7880
 Red. masses --      1.5239                 1.2868                 1.1235
 Frc consts  --      1.0422                 1.0081                 0.9865
 IR Inten    --     20.6795                 5.7257                 0.0000

                     25                     26                     27
                      A                      A                      A
 Frequencies --   1235.2458              1246.9313              1345.8742
 Red. masses --      6.2321                 2.1663                 7.3565
 Frc consts  --      5.6026                 1.9845                 7.8511
 IR Inten    --      0.0000                 3.2751                 0.2100

                     28                     29                     30
                      A                      A                      A
 Frequencies --   1353.2206              1442.4067              1443.3279
 Red. masses --      1.2984                 1.2494                 1.2407
 Frc consts  --      1.4009                 1.5316                 1.5229
 IR Inten    --      0.0001                 0.2032                 0.0000

                     31                     32                     33
                      A                      A                      A
 Frequencies --   1455.7693              1517.2211              1517.7428
 Red. masses --      2.4325                 1.0835                 1.0491
 Frc consts  --      3.0373                 1.4696                 1.4238
 IR Inten    --      0.3580                 0.0054                 0.0001

                     34                     35                     36
                      A                      A                      A
 Frequencies --   1518.5359              1528.9931              1567.9136
 Red. masses --      1.0478                 1.1025                 2.5431
 Frc consts  --      1.4236                 1.5186                 3.6835
 IR Inten    --     10.3422                15.1484                23.9816

                     37                     38                     39
                      A                      A                      A
 Frequencies --   1633.1162              1677.7835              3037.6840
 Red. masses --      5.1642                 5.8349                 1.0409
 Frc consts  --      8.1150                 9.6773                 5.6592
 IR Inten    --      0.0002                 0.0000                71.1909

                     40                     41                     42
                      A                      A                      A
 Frequencies --   3037.9908              3094.1394              3094.2753
 Red. masses --      1.0411                 1.0950                 1.0952
 Frc consts  --      5.6611                 6.1763                 6.1784
 IR Inten    --      0.0047                 0.0042                47.2119

                     43                     44                     45
                      A                      A                      A
 Frequencies --   3121.0517              3121.0686              3166.6633
 Red. masses --      1.1026                 1.1026                 1.0865
 Frc consts  --      6.3283                 6.3280                 6.4194
 IR Inten    --      0.6632                35.2630                27.1960

                     46                     47                     48
                      A                      A                      A
 Frequencies --   3166.9148              3183.1255              3186.6993
 Red. masses --      1.0866                 1.0939                 1.0946
 Frc consts  --      6.4208                 6.5305                 6.5490
 IR Inten    --      0.3888                57.9563                 0.0032

 - Thermochemistry -
 -------------------
 Temperature   298.150 Kelvin.  Pressure   1.00000 Atm.
 Atom     1 has atomic number  6 and mass  12.00000

 Molecular mass:   106.07825 amu.
 Principal axes and moments of inertia in atomic units:
                           1         2         3
     Eigenvalues --   335.005181267.004821579.56332
           X            1.00000  -0.00000   0.00054
           Y            0.00000   1.00000   0.00000
           Z           -0.00054  -0.00000   1.00000
 This molecule is an asymmetric top.
 Rotational symmetry number  1.
 Rotational temperatures (Kelvin)      0.25855     0.06836     0.05483
 Rotational constants (GHZ):           5.38720     1.42442     1.14256
 Zero-point vibrational energy     409080.1 (Joules/Mol)
                                   97.77249 (Kcal/Mol)
 Warning -- explicit consideration of   9 degrees of freedom as
           vibrations may cause significant error
 Vibrational temperatures:     20.73    59.12   196.42   411.10   444.20
          (Kelvin)            554.50   602.68   667.16   719.24   949.65
                             1033.99  1051.70  1172.47  1209.35  1232.90
                             1378.15  1380.93  1440.38  1492.59  1498.51
                             1544.96  1550.12  1659.04  1756.44  1777.24
                             1794.06  1936.41  1946.98  2075.30  2076.63
                             2094.53  2182.94  2183.69  2184.83  2199.88
                             2255.88  2349.69  2413.96  4370.55  4370.99
                             4451.78  4451.97  4490.50  4490.52  4556.12
                             4556.48  4579.81  4584.95

 Zero-point correction=                           0.155810 (Hartree/Particle)
 Thermal correction to Energy=                    0.163925
 Thermal correction to Enthalpy=                  0.164869
 Thermal correction to Gibbs Free Energy=         0.121251
 Sum of electronic and zero-point Energies=           -310.728704
 Sum of electronic and thermal Energies=              -310.720589
 Sum of electronic and thermal Enthalpies=            -310.719645
 Sum of electronic and thermal Free Energies=         -310.763263

                     E (Thermal)             CV                S
                      KCal/Mol        Cal/Mol-Kelvin    Cal/Mol-Kelvin
 Total                  102.864             29.196             91.802
 Electronic               0.000              0.000              0.000
 Translational            0.889              2.981             39.894
 Rotational               0.889              2.981             27.996
 Vibrational            101.087             23.234             23.912
 Vibration     1          0.593              1.986              7.285
 Vibration     2          0.594              1.981              5.206
 Vibration     3          0.614              1.917              2.852
 Vibration     4          0.684              1.700              1.499
 Vibration     5          0.698              1.657              1.369
 Vibration     6          0.754              1.501              1.018
 Vibration     7          0.782              1.429              0.896
 Vibration     8          0.821              1.331              0.755
 Vibration     9          0.855              1.250              0.658

 Optimization completed on the basis of negligible forces.
    -- Stationary point found.

 1\1\GINC-DELLA-R4C2N13\Freq\RB3LYP\6-31G(d)\C8H10\BJS4\26-Dec-2019\0\\
 # freq B3LYP/6-31G* scf=qc volume NMR pop=NPA density=current Geom=All
 Check Guess=Read\\Title Card Required\\0,1\C,1.0177894449,0.0895986886
 ,0.0642057957\C,2.5212446728,0.1073534859,-0.0891620011\C,3.2265201026
 ,1.3140857442,-0.1755276309\C,4.6100507989,1.3303675717,-0.3499469133\
 C,5.34314558,0.1405552631,-0.4393557034\C,6.8466059017,0.1580961978,-0
 .5926978328\C,4.6378358906,-1.066240676,-0.352992497\C,3.2543744321,-1
 .0825216484,-0.1785759101\H,0.659070035,0.9726781264,0.6041146794\H,0.

 Normal termination of Gaussian 16 at Thu Dec 26 13:10:40 2019.
 Gaussian 16:  ES64L-G16RevA.03 25-Dec-2016

 ----------------------------------------------------------------------
 # TD(NStates=10, Root=1) B3LYP/6-31G* scf=qc volume pop=NPA density=cu
 rrent Geom=AllCheck Guess=Read
 ----------------------------------------------------------------------

 Structure from the checkpoint file:  "solvent_23.chk"
 -------------------
 Title Card Required
 -------------------
 Charge =  0 Multiplicity = 1

                         Standard orientation:
 ---------------------------------------------------------------------
 Center     Atomic      Atomic             Coordinates (Angstroms)
 Number     Number       Type             X           Y           Z
 ---------------------------------------------------------------------
      1          6           0        2.933054   -0.000051    0.005001
      2          6           0        1.421806    0.000056   -0.013550
      3          6           0        0.697242    1.198410   -0.007994
      4          6           0       -0.697243    1.198409    0.008004
      5          6           0       -1.421806    0.000055    0.013557
      6          6           0       -2.933054   -0.000052   -0.005020
      7          6           0       -0.697208   -1.198362    0.008007
      8          6           0        0.697208   -1.198361   -0.007996
      9          1           0        3.340488    0.887819   -0.490676
     10          1           0        3.340494   -0.883886   -0.497880
     11          1           0        3.321416   -0.004297    1.032597
     12          1           0        1.231682    2.146315   -0.013445
     13          1           0       -1.231683    2.146314    0.013464
     14          1           0       -3.340499    0.887757    0.490758
     15          1           0       -3.340503   -0.883951    0.497739
     16          1           0       -3.321396   -0.004167   -1.032625
     17          1           0       -1.231656   -2.146268    0.013478
     18          1           0        1.231657   -2.146267   -0.013459
 ---------------------------------------------------------------------

 SCF Done:  E(RB3LYP) =  -310.884514007     a.u. after    1 cycles

 Excitation energies and oscillator strengths:

 Excited State   1:      Singlet-A      5.3243 eV  232.87 nm  f=0.0037  <S**2>=0.000
      28 -> 31         0.43366
      29 -> 30         0.55797
 This state for optimization and/or second-order correction.
 Total Energy, E(TD-HF/TD-DFT) =  -310.688850944
 Copying the excited state density for this state as the 1-particle RhoCI density.

 Excited State   2:      Singlet-A      6.0152 eV  206.12 nm  f=0.0838  <S**2>=0.000
      28 -> 30        -0.38318
      29 -> 31         0.59165

 Excited State   3:      Singlet-A      6.9999 eV  177.12 nm  f=0.3578  <S**2>=0.000
      28 -> 31         0.55337
      29 -> 30        -0.42947

 Excited State   4:      Singlet-A      7.0463 eV  175.96 nm  f=0.7943  <S**2>=0.000
      28 -> 30         0.58915
      29 -> 31         0.38082

 Excited State   5:      Singlet-A      7.7670 eV  159.63 nm  f=0.0002  <S**2>=0.000
      26 -> 30        -0.28404
      27 -> 31         0.63950

 Excited State   6:      Singlet-A      7.7672 eV  159.63 nm  f=0.0034  <S**2>=0.000
      27 -> 30         0.69876

 Excited State   7:      Singlet-A      7.8716 eV  157.51 nm  f=0.0000  <S**2>=0.000
      29 -> 32         0.70300

 Excited State   8:      Singlet-A      7.8993 eV  156.96 nm  f=0.0015  <S**2>=0.000
      26 -> 30         0.64355
      27 -> 31         0.28620

 Excited State   9:      Singlet-A      7.9996 eV  154.99 nm  f=0.0042  <S**2>=0.000
      26 -> 31         0.70318

 Excited State  10:      Singlet-A      8.2454 eV  150.37 nm  f=0.0000  <S**2>=0.000
      28 -> 32         0.69636

 The electronic state is 1-A.
 Alpha  occ. eigenvalues --  -10.18867 -10.18867 -10.17979 -10.17977 -10.17959
 Alpha  occ. eigenvalues --  -10.17959 -10.17923 -10.17923  -0.84848  -0.77787
 Alpha  occ. eigenvalues --   -0.73415  -0.71265  -0.64927  -0.59864  -0.56556
 Alpha  occ. eigenvalues --   -0.48426  -0.46081  -0.44542  -0.41661  -0.40937
 Alpha  occ. eigenvalues --   -0.40889  -0.39538  -0.38888  -0.36701  -0.33579
 Alpha  occ. eigenvalues --   -0.33231  -0.32749  -0.24115  -0.22568
 Alpha virt. eigenvalues --    0.00680   0.00906   0.10092   0.11596   0.13347
 Alpha virt. eigenvalues --    0.13550   0.14266   0.16454   0.17050   0.18427
 Alpha virt. eigenvalues --    0.19770   0.20055   0.21286   0.23559   0.25906

 Mulliken charges:
               1
     1  C   -0.530333
     2  C    0.180255
     3  C   -0.186703
     4  C   -0.186704
     5  C    0.180255
     6  C   -0.530332
     7  C   -0.186668
     8  C   -0.186669
     9  H    0.157494
    10  H    0.157547
    11  H    0.169470
    12  H    0.119475
    13  H    0.119475
    14  H    0.157495
    15  H    0.157546
    16  H    0.169470
    17  H    0.119464
    18  H    0.119463
 Sum of Mulliken charges =  -0.00000

 Dipole moment (field-independent basis, Debye):
    X=              0.0000    Y=             -0.0004    Z=             -0.0000  Tot=              0.0004
 Quadrupole moment (field-independent basis, Debye-Ang):
   XX=            -43.1181   YY=            -46.1046   ZZ=            -51.1399
   XY=              0.0000   XZ=              0.2736   YZ=             -0.0000

 Summary of Natural Population Analysis:

                                       Natural Population
                Natural  -----------------------------------------------
    Atom  No    Charge         Core      Valence    Rydberg      Total
 -----------------------------------------------------------------------
      C    1   -0.69452      1.99940     4.68738    0.00774     6.69452
      C    2    0.00425      1.99906     3.98060    0.01609     5.99575
      C    3   -0.24234      1.99907     4.22526    0.01801     6.24234
      C    4   -0.24235      1.99907     4.22526    0.01801     6.24235
      C    5    0.00425      1.99906     3.98060    0.01609     5.99575
      C    6   -0.69452      1.99940     4.68738    0.00774     6.69452
      C    7   -0.24241      1.99907     4.22533    0.01802     6.24241
      C    8   -0.24242      1.99907     4.22534    0.01802     6.24242
      H    9    0.23910      0.00000     0.75928    0.00162     0.76090
      H   10    0.23916      0.00000     0.75920    0.00163     0.76084
      H   11    0.24734      0.00000     0.75087    0.00179     0.75266
      H   12    0.22472      0.00000     0.77419    0.00110     0.77528
      H   13    0.22472      0.00000     0.77419    0.00110     0.77528
      H   14    0.23911      0.00000     0.75928    0.00162     0.76089
      H   15    0.23916      0.00000     0.75920    0.00163     0.76084
      H   16    0.24734      0.00000     0.75087    0.00179     0.75266
      H   17    0.22471      0.00000     0.77419    0.00110     0.77529
      H   18    0.22471      0.00000     0.77419    0.00110     0.77529
 =======================================================================
   * Total *   -0.00000     15.99320    41.87261    0.13419    58.00000

 Normal termination of Gaussian 16 at Thu Dec 26 13:14:42 2019.
