 Gaussian 16, Revision A.03,

 ---------------------------------
 # opt=CalcAll B3LYP/6-31G* scf=qc
 ---------------------------------

 -------------------
 Title Card Required
 -------------------
 Symbolic Z-matrix:
 Charge = -1 Multiplicity = 1

 SCF Done:  E(RB3LYP) =  -1013.72238143     a.u. after    8 cycles
 SCF Done:  E(RB3LYP) =  -1013.74234059     a.u. after   13 cycles
 SCF Done:  E(RB3LYP) =  -1013.74640952     a.u. after   15 cycles
 SCF Done:  E(RB3LYP) =  -1013.74946722     a.u. after   15 cycles
 SCF Done:  E(RB3LYP) =  -1013.74096337     a.u. after   17 cycles
 SCF Done:  E(RB3LYP) =  -1013.74970392     a.u. after   10 cycles
 SCF Done:  E(RB3LYP) =  -1013.75129394     a.u. after   15 cycles
 SCF Done:  E(RB3LYP) =  -1013.75362400     a.u. after   15 cycles
 SCF Done:  E(RB3LYP) =  -1013.75486938     a.u. after   15 cycles
 SCF Done:  E(RB3LYP) =  -1013.75484244     a.u. after   15 cycles
 SCF Done:  E(RB3LYP) =  -1013.75537113     a.u. after   11 cycles
 SCF Done:  E(RB3LYP) =  -1013.75529285     a.u. after   13 cycles
 SCF Done:  E(RB3LYP) =  -1013.75551480     a.u. after   11 cycles
 SCF Done:  E(RB3LYP) =  -1013.75548454     a.u. after    9 cycles
 SCF Done:  E(RB3LYP) =  -1013.75555536     a.u. after    7 cycles
 SCF Done:  E(RB3LYP) =  -1013.75555745     a.u. after    9 cycles
 SCF Done:  E(RB3LYP) =  -1013.75555684     a.u. after    2 cycles
 SCF Done:  E(RB3LYP) =  -1013.75556089     a.u. after    6 cycles
 Optimization completed.
    -- Stationary point found.
 Normal termination of Gaussian 16 at Thu Dec 26 16:18:14 2019.

 ----------------------------------------------------------------------
 # freq B3LYP/6-31G* scf=qc volume NMR pop=NPA density=current Geom=All
 Check Guess=Read
 ----------------------------------------------------------------------

 Structure from the checkpoint file:  "nucleophile_32.chk"
 -------------------
 Title Card Required
 -------------------
 Charge = -1 Multiplicity = 1

 SCF Done:  E(RB3LYP) =  -1013.75556089     a.u. after    1 cycles

      1  C    Isotropic =   166.4647   Anisotropy =    30.8332

      2  C    Isotropic =    60.6211   Anisotropy =   167.2098

      3  C    Isotropic =    68.8433   Anisotropy =   129.6338

      4  C    Isotropic =    93.8239   Anisotropy =   126.2852

      5  C    Isotropic =    59.6379   Anisotropy =   142.1324

      6  N    Isotropic =    78.3087   Anisotropy =    76.0080

      7  C    Isotropic =   108.3775   Anisotropy =    31.2442

      8  C    Isotropic =   160.7339   Anisotropy =    12.9740

      9  C    Isotropic =   167.5958   Anisotropy =     7.1236

     10  C    Isotropic =   162.3879   Anisotropy =     8.6832

     11  C    Isotropic =   131.3484   Anisotropy =    47.0432

     12  O    Isotropic =   260.3151   Anisotropy =    80.7544

     13  N    Isotropic =   -39.4293   Anisotropy =   291.5499

     14  C    Isotropic =    54.6074   Anisotropy =   121.0255

     15  C    Isotropic =    63.6902   Anisotropy =   137.1692

     16  C    Isotropic =    40.6763   Anisotropy =   222.4135

     17  B    Isotropic =   107.3974   Anisotropy =    13.2776

     18  F    Isotropic =   353.5061   Anisotropy =    74.6503

     19  F    Isotropic =   351.8892   Anisotropy =    58.6864

     20  F    Isotropic =   352.0159   Anisotropy =    58.5734

     21  H    Isotropic =    31.0790   Anisotropy =     7.1786

     22  H    Isotropic =    29.1274   Anisotropy =     6.2752

     23  H    Isotropic =    29.1042   Anisotropy =     6.1231

     24  H    Isotropic =    25.6403   Anisotropy =     7.5658

     25  H    Isotropic =    25.5763   Anisotropy =     8.8487

     26  H    Isotropic =    26.5905   Anisotropy =     4.4294

     27  H    Isotropic =    29.5473   Anisotropy =     6.7758

     28  H    Isotropic =    30.5487   Anisotropy =     7.9783

     29  H    Isotropic =    29.1918   Anisotropy =     7.1299

     30  H    Isotropic =    30.8492   Anisotropy =     9.9690

     31  H    Isotropic =    31.0702   Anisotropy =     9.0903

     32  H    Isotropic =    30.5485   Anisotropy =     8.2940

     33  H    Isotropic =    28.5560   Anisotropy =     4.8928

     34  H    Isotropic =    29.0122   Anisotropy =     7.8688

     35  H    Isotropic =    23.8150   Anisotropy =     9.0424

  Exact polarizability: 221.163 -14.056 167.024   6.756  -0.626 103.510
 Approx polarizability: 304.079  -9.257 284.073  19.032   2.990 156.181

                      1                      2                      3
                      A                      A                      A
 Frequencies --     22.4464                26.6955                36.2306
 Red. masses --      4.6246                 4.4250                 3.9584
 Frc consts  --      0.0014                 0.0019                 0.0031
 IR Inten    --      0.2062                 1.0975                 0.1523

                      4                      5                      6
                      A                      A                      A
 Frequencies --     71.9792                95.1640               102.4126
 Red. masses --      1.4323                 5.2287                 4.7003
 Frc consts  --      0.0044                 0.0279                 0.0290
 IR Inten    --      0.1252                 0.3731                 4.4240

                      7                      8                      9
                      A                      A                      A
 Frequencies --    129.3451               163.4036               176.5923
 Red. masses --      3.4429                 5.6158                 5.0296
 Frc consts  --      0.0339                 0.0883                 0.0924
 IR Inten    --      0.8651                 0.3972                 2.1635

                     10                     11                     12
                      A                      A                      A
 Frequencies --    199.7918               230.4414               238.9353
 Red. masses --      3.5315                 5.2611                 4.3371
 Frc consts  --      0.0831                 0.1646                 0.1459
 IR Inten    --      0.3583                 3.1562                 8.4941

                     13                     14                     15
                      A                      A                      A
 Frequencies --    278.7356               291.3269               300.0363
 Red. masses --      5.7142                 5.0729                 4.1688
 Frc consts  --      0.2616                 0.2537                 0.2211
 IR Inten    --      1.9128                 0.7851                 2.2464

                     16                     17                     18
                      A                      A                      A
 Frequencies --    345.6032               360.4127               366.8064
 Red. masses --      2.6773                 3.7489                 2.6132
 Frc consts  --      0.1884                 0.2869                 0.2072
 IR Inten    --      1.9112                 0.7705                 4.8827

                     19                     20                     21
                      A                      A                      A
 Frequencies --    409.1980               438.0317               451.3137
 Red. masses --      4.0871                10.3790                 8.5511
 Frc consts  --      0.4032                 1.1733                 1.0262
 IR Inten    --     13.3101                 1.1830                 2.2550

                     22                     23                     24
                      A                      A                      A
 Frequencies --    471.5400               506.5191               527.5841
 Red. masses --      4.2271                 4.3041                 3.5482
 Frc consts  --      0.5538                 0.6506                 0.5819
 IR Inten    --      2.2106                 2.6912                 1.8071

                     25                     26                     27
                      A                      A                      A
 Frequencies --    544.0521               545.6744               612.6664
 Red. masses --      4.5581                 3.1525                 4.9459
 Frc consts  --      0.7949                 0.5531                 1.0938
 IR Inten    --      0.7452                 1.1409                 6.0008

                     28                     29                     30
                      A                      A                      A
 Frequencies --    626.5271               630.7980               655.4879
 Red. masses --      5.7659                 4.9174                 4.6500
 Frc consts  --      1.3335                 1.1528                 1.1772
 IR Inten    --     11.9463                 2.5147                 0.0653

                     31                     32                     33
                      A                      A                      A
 Frequencies --    661.8467               767.1979               775.9370
 Red. masses --      8.6686                 3.8997                 4.5957
 Frc consts  --      2.2372                 1.3524                 1.6303
 IR Inten    --     25.1601                11.0984                 3.7494

                     34                     35                     36
                      A                      A                      A
 Frequencies --    790.5100               809.6649               821.1619
 Red. masses --      1.4875                 2.8968                 3.0610
 Frc consts  --      0.5477                 1.1189                 1.2161
 IR Inten    --     17.6919                 3.1124                12.7588

                     37                     38                     39
                      A                      A                      A
 Frequencies --    862.7992               876.2178               882.7692
 Red. masses --      2.0263                 6.8851                 2.9876
 Frc consts  --      0.8887                 3.1145                 1.3717
 IR Inten    --      6.8597               148.9761                 8.2885

                     40                     41                     42
                      A                      A                      A
 Frequencies --    894.2147               899.3812               920.2863
 Red. masses --      2.5549                 1.3214                 1.2566
 Frc consts  --      1.2037                 0.6298                 0.6270
 IR Inten    --     25.4680                 9.0361                 0.1992

                     43                     44                     45
                      A                      A                      A
 Frequencies --    946.0126               963.0421              1005.2362
 Red. masses --      1.5494                 3.3556                 2.8654
 Frc consts  --      0.8170                 1.8337                 1.7060
 IR Inten    --      4.0291                49.1262                95.9688

                     46                     47                     48
                      A                      A                      A
 Frequencies --   1026.3148              1052.5110              1056.3513
 Red. masses --      2.2573                 2.0902                 2.0395
 Frc consts  --      1.4008                 1.3643                 1.3409
 IR Inten    --    144.4053                 0.6280                74.1038

                     49                     50                     51
                      A                      A                      A
 Frequencies --   1067.5400              1069.1711              1078.3970
 Red. masses --      2.3972                 1.6822                 4.3952
 Frc consts  --      1.6096                 1.1330                 3.0115
 IR Inten    --     53.5920                19.5130               197.0819

                     52                     53                     54
                      A                      A                      A
 Frequencies --   1092.4448              1096.8260              1104.5250
 Red. masses --      5.4980                 4.0832                 2.4670
 Frc consts  --      3.8659                 2.8942                 1.7733
 IR Inten    --    192.0978               117.5312                64.5583

                     55                     56                     57
                      A                      A                      A
 Frequencies --   1145.3598              1178.5634              1206.5024
 Red. masses --      2.5393                 1.3988                 2.1185
 Frc consts  --      1.9627                 1.1448                 1.8169
 IR Inten    --     40.7193                47.6769                 6.9745

                     58                     59                     60
                      A                      A                      A
 Frequencies --   1227.7507              1234.0830              1239.3172
 Red. masses --      1.7988                 1.8720                 1.6659
 Frc consts  --      1.5975                 1.6797                 1.5075
 IR Inten    --     13.2239                 1.3301                27.5772

                     61                     62                     63
                      A                      A                      A
 Frequencies --   1263.9505              1308.1385              1315.3129
 Red. masses --      2.4457                 1.3342                 4.6699
 Frc consts  --      2.3021                 1.3452                 4.7601
 IR Inten    --     30.5667                 7.7855                35.1750

                     64                     65                     66
                      A                      A                      A
 Frequencies --   1321.5472              1354.8737              1376.9672
 Red. masses --      1.1947                 1.6612                 5.7110
 Frc consts  --      1.2293                 1.7967                 6.3799
 IR Inten    --      6.2295                35.2639                17.2211

                     67                     68                     69
                      A                      A                      A
 Frequencies --   1377.1686              1392.9160              1401.4255
 Red. masses --      1.6409                 1.4770                 1.5965
 Frc consts  --      1.8336                 1.6884                 1.8473
 IR Inten    --     31.1380                13.0093                 0.6651

                     70                     71                     72
                      A                      A                      A
 Frequencies --   1406.8248              1419.2807              1433.7016
 Red. masses --      1.2814                 1.8679                 1.3355
 Frc consts  --      1.4942                 2.2169                 1.6173
 IR Inten    --     57.4642                56.7158                 5.5993

                     73                     74                     75
                      A                      A                      A
 Frequencies --   1435.4944              1447.3821              1472.1588
 Red. masses --      1.3130                 2.5581                 5.6822
 Frc consts  --      1.5941                 3.1574                 7.2557
 IR Inten    --      4.9169                24.4615                 5.2906

                     76                     77                     78
                      A                      A                      A
 Frequencies --   1496.2444              1503.0484              1510.4447
 Red. masses --      1.0978                 1.0470                 1.0917
 Frc consts  --      1.4480                 1.3936                 1.4675
 IR Inten    --      6.0558                 0.2100                 2.3560

                     79                     80                     81
                      A                      A                      A
 Frequencies --   1522.2991              1534.0942              1537.8099
 Red. masses --      1.0961                 1.3190                 1.0953
 Frc consts  --      1.4966                 1.8289                 1.5261
 IR Inten    --      3.6633                26.0604                12.7069

                     82                     83                     84
                      A                      A                      A
 Frequencies --   1544.9354              1626.2068              1639.9875
 Red. masses --      2.7745                 6.1494                 7.5052
 Frc consts  --      3.9017                 9.5816                11.8930
 IR Inten    --     27.2345                 7.2088                25.5278

                     85                     86                     87
                      A                      A                      A
 Frequencies --   3021.9928              3032.7579              3034.8284
 Red. masses --      1.0623                 1.0667                 1.0756
 Frc consts  --      5.7159                 5.7804                 5.8370
 IR Inten    --     36.6500                25.2968                 1.8363

                     88                     89                     90
                      A                      A                      A
 Frequencies --   3037.2530              3040.8970              3051.0235
 Red. masses --      1.0409                 1.0713                 1.0760
 Frc consts  --      5.6576                 5.8366                 5.9013
 IR Inten    --     69.6934                80.1175               109.4870

                     91                     92                     93
                      A                      A                      A
 Frequencies --   3064.4864              3097.4670              3110.7951
 Red. masses --      1.0992                 1.1015                 1.0959
 Frc consts  --      6.0820                 6.2267                 6.2486
 IR Inten    --     49.9288                55.6839                16.7296

                     94                     95                     96
                      A                      A                      A
 Frequencies --   3111.2768              3120.8430              3126.3549
 Red. masses --      1.0950                 1.1001                 1.0953
 Frc consts  --      6.2454                 6.3127                 6.3077
 IR Inten    --     27.9624                11.7613                19.5648

                     97                     98                     99
                      A                      A                      A
 Frequencies --   3141.5167              3202.8344              3294.7529
 Red. masses --      1.0875                 1.0922                 1.0955
 Frc consts  --      6.3237                 6.6013                 7.0065
 IR Inten    --     54.6282                19.7951                 4.0999

 - Thermochemistry -
 -------------------
 Temperature   298.150 Kelvin.  Pressure   1.00000 Atm.
 Atom     1 has atomic number  6 and mass  12.00000

 Molecular mass:   283.12295 amu.
 Principal axes and moments of inertia in atomic units:
                           1         2         3
     Eigenvalues --  2394.854369678.97191**********
           X            0.99959  -0.02832  -0.00492
           Y            0.02828   0.99957  -0.00725
           Z            0.00512   0.00711   0.99996
 This molecule is an asymmetric top.
 Rotational symmetry number  1.
 Warning -- assumption of classical behavior for rotation
           may cause significant error
 Rotational temperatures (Kelvin)      0.03617     0.00895     0.00790
 Rotational constants (GHZ):           0.75359     0.18646     0.16452
 Zero-point vibrational energy     722179.5 (Joules/Mol)
                                  172.60504 (Kcal/Mol)
 Warning -- explicit consideration of  27 degrees of freedom as
           vibrations may cause significant error
 Vibrational temperatures:     32.30    38.41    52.13   103.56   136.92
          (Kelvin)            147.35   186.10   235.10   254.08   287.46
                              331.55   343.77   401.04   419.15   431.69
                              497.25   518.55   527.75   588.74   630.23
                              649.34   678.44   728.77   759.08   782.77
                              785.10   881.49   901.43   907.58   943.10
                              952.25  1103.83  1116.40  1137.37  1164.93
                             1181.47  1241.38  1260.68  1270.11  1286.58
                             1294.01  1324.09  1361.10  1385.60  1446.31
                             1476.64  1514.33  1519.85  1535.95  1538.30
                             1551.57  1571.78  1578.09  1589.17  1647.92
                             1695.69  1735.89  1766.46  1775.57  1783.10
                             1818.54  1882.12  1892.44  1901.41  1949.36
                             1981.15  1981.44  2004.10  2016.34  2024.11
                             2042.03  2062.78  2065.36  2082.46  2118.11
                             2152.76  2162.55  2173.19  2190.25  2207.22
                             2212.57  2222.82  2339.75  2359.58  4347.97
                             4363.46  4366.44  4369.93  4375.17  4389.74
                             4409.11  4456.56  4475.74  4476.43  4490.20
                             4498.13  4519.94  4608.16  4740.41

 Zero-point correction=                           0.275064 (Hartree/Particle)
 Thermal correction to Energy=                    0.292611
 Thermal correction to Enthalpy=                  0.293555
 Thermal correction to Gibbs Free Energy=         0.227853
 Sum of electronic and zero-point Energies=          -1013.480497
 Sum of electronic and thermal Energies=             -1013.462950
 Sum of electronic and thermal Enthalpies=           -1013.462006
 Sum of electronic and thermal Free Energies=        -1013.527708

                     E (Thermal)             CV                S
                      KCal/Mol        Cal/Mol-Kelvin    Cal/Mol-Kelvin
 Total                  183.616             67.545            138.283
 Electronic               0.000              0.000              0.000
 Translational            0.889              2.981             42.820
 Rotational               0.889              2.981             33.897
 Vibrational            181.839             61.584             61.566
 Vibration     1          0.593              1.985              6.405
 Vibration     2          0.593              1.984              6.061
 Vibration     3          0.594              1.982              5.455
 Vibration     4          0.598              1.967              4.098
 Vibration     5          0.603              1.953              3.551
 Vibration     6          0.604              1.947              3.408
 Vibration     7          0.612              1.924              2.956
 Vibration     8          0.623              1.887              2.510
 Vibration     9          0.628              1.871              2.364
 Vibration    10          0.638              1.840              2.135
 Vibration    11          0.652              1.794              1.876
 Vibration    12          0.657              1.781              1.811
 Vibration    13          0.679              1.713              1.541
 Vibration    14          0.687              1.690              1.466
 Vibration    15          0.693              1.674              1.417
 Vibration    16          0.724              1.584              1.186
 Vibration    17          0.735              1.554              1.120
 Vibration    18          0.740              1.541              1.093
 Vibration    19          0.774              1.450              0.929
 Vibration    20          0.798              1.387              0.833
 Vibration    21          0.810              1.358              0.792
 Vibration    22          0.828              1.313              0.733
 Vibration    23          0.862              1.236              0.642
 Vibration    24          0.883              1.189              0.593
 Vibration    25          0.899              1.153              0.557
 Vibration    26          0.901              1.149              0.553
 Vibration    27          0.972              1.005              0.428

                           ! Non-Optimized Parameters !
 Normal termination of Gaussian 16 at Thu Dec 26 16:30:53 2019.
 Gaussian 16:  ES64L-G16RevA.03 25-Dec-2016

 ----------------------------------------------------------------------
 # TD(NStates=10, Root=1) B3LYP/6-31G* scf=qc volume pop=NPA density=cu
 rrent Geom=AllCheck Guess=Read
 ----------------------------------------------------------------------

 Structure from the checkpoint file:  "nucleophile_33.chk"
 -------------------
 Title Card Required
 -------------------
 Charge = -1 Multiplicity = 1

                         Standard orientation:
 ---------------------------------------------------------------------
 Center     Atomic      Atomic             Coordinates (Angstroms)
 Number     Number       Type             X           Y           Z
 ---------------------------------------------------------------------
      1          6           0       -3.777354    2.013072   -0.143260
      2          6           0       -2.370269    1.475654    0.034956
      3          6           0       -1.308297    2.393576    0.213842
      4          6           0        0.018156    2.006081    0.379436
      5          6           0        0.254822    0.627854    0.372293
      6          7           0        1.419554   -0.104598    0.514520
      7          6           0        2.714873    0.421062    0.883133
      8          6           0        3.755369   -0.678906    1.139222
      9          6           0        4.241419   -1.334854   -0.163526
     10          6           0        4.636385   -0.266911   -1.195421
     11          6           0        3.509972    0.756845   -1.345027
     12          8           0        3.195618    1.358468   -0.088340
     13          7           0        1.162112   -1.461907    0.456444
     14          6           0       -0.135384   -1.575878    0.257068
     15          6           0       -0.798079   -0.304145    0.192376
     16          6           0       -2.145506    0.086179    0.014027
     17          5           0       -3.364210   -0.999589   -0.200891
     18          9           0       -2.857173   -2.323205   -0.175680
     19          9           0       -4.320045   -0.853764    0.833089
     20          9           0       -3.990732   -0.771322   -1.449696
     21          1           0       -3.800472    3.110062   -0.109530
     22          1           0       -4.439784    1.617472    0.633584
     23          1           0       -4.198069    1.675644   -1.096111
     24          1           0       -1.540134    3.458947    0.213415
     25          1           0        0.821391    2.728864    0.483954
     26          1           0        2.595024    1.043306    1.779226
     27          1           0        3.338573   -1.428609    1.816795
     28          1           0        4.600302   -0.191555    1.644064
     29          1           0        3.431387   -1.955110   -0.560408
     30          1           0        5.091126   -1.997738    0.048419
     31          1           0        4.855554   -0.725703   -2.169394
     32          1           0        5.546320    0.256618   -0.868262
     33          1           0        2.613139    0.283203   -1.769261
     34          1           0        3.800504    1.585491   -1.999320
     35          1           0       -0.595510   -2.548301    0.163119
 ---------------------------------------------------------------------

 SCF Done:  E(RB3LYP) =  -1013.75556089     a.u. after    1 cycles

 Excitation energies and oscillator strengths:

 Excited State   1:      Singlet-A      4.4349 eV  279.57 nm  f=0.0984  <S**2>=0.000
      73 -> 75         0.11191
      73 -> 76         0.16867
      74 -> 75         0.66667
 This state for optimization and/or second-order correction.
 Total Energy, E(TD-HF/TD-DFT) =  -1013.59258172
 Copying the excited state density for this state as the 1-particle RhoCI density.

 Excited State   2:      Singlet-A      5.0593 eV  245.06 nm  f=0.0029  <S**2>=0.000
      72 -> 75         0.69727

 Excited State   3:      Singlet-A      5.1644 eV  240.07 nm  f=0.0416  <S**2>=0.000
      73 -> 75         0.55403
      74 -> 75        -0.14863
      74 -> 76        -0.37965

 Excited State   4:      Singlet-A      5.8652 eV  211.39 nm  f=0.4035  <S**2>=0.000
      71 -> 75         0.23725
      73 -> 75         0.30963
      74 -> 76         0.50327
      74 -> 77        -0.17039
      74 -> 78        -0.22156

 Excited State   5:      Singlet-A      6.0979 eV  203.32 nm  f=0.0507  <S**2>=0.000
      69 -> 75         0.14028
      71 -> 75         0.54091
      73 -> 76        -0.18570
      74 -> 76        -0.15839
      74 -> 77         0.30988

 Excited State   6:      Singlet-A      6.1823 eV  200.55 nm  f=0.0031  <S**2>=0.000
      69 -> 75         0.11097
      72 -> 76         0.67009
      74 -> 77        -0.11713

 Excited State   7:      Singlet-A      6.2234 eV  199.22 nm  f=0.0123  <S**2>=0.000
      66 -> 75         0.14149
      67 -> 75         0.11785
      69 -> 75         0.58266
      72 -> 76        -0.14877
      74 -> 77        -0.27732

 Excited State   8:      Singlet-A      6.2597 eV  198.07 nm  f=0.0720  <S**2>=0.000
      70 -> 75        -0.17106
      73 -> 75        -0.14930
      73 -> 76         0.51113
      74 -> 75        -0.10563
      74 -> 77         0.10634
      74 -> 78        -0.37656

 Excited State   9:      Singlet-A      6.3041 eV  196.67 nm  f=0.1476  <S**2>=0.000
      69 -> 75         0.24073
      70 -> 75         0.22416
      71 -> 75        -0.27087
      73 -> 75         0.13975
      74 -> 76         0.18159
      74 -> 77         0.48799

 Excited State  10:      Singlet-A      6.3585 eV  194.99 nm  f=0.0703  <S**2>=0.000
      70 -> 75         0.64218
      73 -> 75        -0.10614
      73 -> 76         0.13643
      74 -> 76        -0.10545
      74 -> 77        -0.14979

 The electronic state is 1-A.
 Alpha  occ. eigenvalues --  -24.45905 -24.45485 -24.45485 -19.05730 -14.27226
 Alpha  occ. eigenvalues --  -14.22849 -10.17687 -10.14007 -10.10152 -10.09747
 Alpha  occ. eigenvalues --  -10.09577 -10.08882 -10.07373 -10.05970 -10.05759
 Alpha  occ. eigenvalues --  -10.04741 -10.04563 -10.03778 -10.01575  -6.62727
 Alpha  occ. eigenvalues --   -0.97838  -0.94955  -0.93822  -0.93566  -0.90160
 Alpha  occ. eigenvalues --   -0.72413  -0.71497  -0.70599  -0.65897  -0.62842
 Alpha  occ. eigenvalues --   -0.60438  -0.55969  -0.55127  -0.53699  -0.48673
 Alpha  occ. eigenvalues --   -0.48314  -0.45098  -0.43117  -0.41289  -0.40140
 Alpha  occ. eigenvalues --   -0.37441  -0.35929  -0.34929  -0.33839  -0.33701
 Alpha  occ. eigenvalues --   -0.32759  -0.32304  -0.31282  -0.29291  -0.29192
 Alpha  occ. eigenvalues --   -0.28731  -0.28097  -0.27954  -0.27620  -0.27122
 Alpha  occ. eigenvalues --   -0.26489  -0.24778  -0.24263  -0.23970  -0.22513
 Alpha  occ. eigenvalues --   -0.21585  -0.21270  -0.19797  -0.19715  -0.19540
 Alpha  occ. eigenvalues --   -0.17344  -0.17135  -0.16781  -0.16183  -0.15245
 Alpha  occ. eigenvalues --   -0.14310  -0.11403  -0.10114  -0.07329
 Alpha virt. eigenvalues --    0.10813   0.15084   0.17466   0.18913   0.20447
 Alpha virt. eigenvalues --    0.21909   0.22455   0.22833   0.23677   0.24628
 Alpha virt. eigenvalues --    0.25620   0.25802   0.26490   0.27097   0.27577

 Mulliken charges:
               1
     1  C   -0.523135
     2  C    0.098779
     3  C   -0.219857
     4  C   -0.168305
     5  C    0.363953
     6  N   -0.399612
     7  C    0.248169
     8  C   -0.263180
     9  C   -0.273129
    10  C   -0.267698
    11  C   -0.034104
    12  O   -0.484781
    13  N   -0.360288
    14  C   -0.006762
    15  C   -0.070973
    16  C   -0.090304
    17  B    0.559641
    18  F   -0.359605
    19  F   -0.371009
    20  F   -0.369453
    21  H    0.107544
    22  H    0.177693
    23  H    0.177735
    24  H    0.071721
    25  H    0.114183
    26  H    0.122526
    27  H    0.160257
    28  H    0.114049
    29  H    0.179642
    30  H    0.108421
    31  H    0.116204
    32  H    0.117381
    33  H    0.156387
    34  H    0.123328
    35  H    0.144581
 Sum of Mulliken charges =  -1.00000

 Dipole moment (field-independent basis, Debye):
    X=             10.5033    Y=              4.1163    Z=              0.1845  Tot=             11.2826
 Quadrupole moment (field-independent basis, Debye-Ang):
   XX=           -168.1156   YY=           -131.3980   ZZ=           -119.3214
   XY=            -14.8278   XZ=             -3.4658   YZ=             -0.2764

 Summary of Natural Population Analysis:

                                       Natural Population
                Natural  -----------------------------------------------
    Atom  No    Charge         Core      Valence    Rydberg      Total
 -----------------------------------------------------------------------
      C    1   -0.69852      1.99939     4.69104    0.00808     6.69852
      C    2    0.06585      1.99907     3.91967    0.01542     5.93415
      C    3   -0.32354      1.99909     4.30827    0.01618     6.32354
      C    4   -0.25213      1.99900     4.23686    0.01627     6.25213
      C    5    0.14797      1.99899     3.83287    0.02017     5.85203
      N    6   -0.21600      1.99927     5.19762    0.01912     7.21600
      C    7    0.27026      1.99917     3.70239    0.02819     5.72974
      C    8   -0.48944      1.99930     4.47681    0.01333     6.48944
      C    9   -0.46654      1.99932     4.45488    0.01234     6.46654
      C   10   -0.48688      1.99933     4.47688    0.01068     6.48688
      C   11   -0.11358      1.99926     4.09449    0.01983     6.11358
      O   12   -0.59778      1.99981     6.58581    0.01216     8.59778
      N   13   -0.40984      1.99948     5.38712    0.02324     7.40984
      C   14   -0.02953      1.99926     4.00192    0.02836     6.02953
      C   15   -0.13430      1.99904     4.11768    0.01758     6.13430
      C   16   -0.27768      1.99890     4.25672    0.02205     6.27768
      B   17    1.22377      1.99930     1.71988    0.05706     3.77623
      F   18   -0.56942      1.99995     7.56423    0.00524     9.56942
      F   19   -0.56486      1.99995     7.55945    0.00545     9.56486
      F   20   -0.56253      1.99995     7.55712    0.00546     9.56253
      H   21    0.20837      0.00000     0.79045    0.00117     0.79163
      H   22    0.26022      0.00000     0.73714    0.00264     0.73978
      H   23    0.26007      0.00000     0.73727    0.00266     0.73993
      H   24    0.20792      0.00000     0.79086    0.00123     0.79208
      H   25    0.22793      0.00000     0.77027    0.00180     0.77207
      H   26    0.22547      0.00000     0.76903    0.00550     0.77453
      H   27    0.26145      0.00000     0.73619    0.00236     0.73855
      H   28    0.22530      0.00000     0.77258    0.00212     0.77470
      H   29    0.25919      0.00000     0.73805    0.00275     0.74081
      H   30    0.22482      0.00000     0.77390    0.00128     0.77518
      H   31    0.23012      0.00000     0.76839    0.00149     0.76988
      H   32    0.21836      0.00000     0.77910    0.00253     0.78164
      H   33    0.21587      0.00000     0.78184    0.00229     0.78413
      H   34    0.21805      0.00000     0.78088    0.00106     0.78195
      H   35    0.24158      0.00000     0.75671    0.00171     0.75842
 =======================================================================
   * Total *   -1.00000     39.98682   107.62437    0.38881   148.00000

 Normal termination of Gaussian 16 at Thu Dec 26 16:44:08 2019.
