 Gaussian 16, Revision A.03,

 ---------------------------------
 # opt=CalcAll B3LYP/6-31G* scf=qc
 ---------------------------------

 -------------------
 Title Card Required
 -------------------
 Symbolic Z-matrix:
 Charge =  0 Multiplicity = 1

 SCF Done:  E(RB3LYP) =  -865.681235282     a.u. after    8 cycles
 SCF Done:  E(RB3LYP) =  -865.708934991     a.u. after   13 cycles
 SCF Done:  E(RB3LYP) =  -865.732969682     a.u. after   16 cycles
 SCF Done:  E(RB3LYP) =  -865.741704603     a.u. after   16 cycles
 SCF Done:  E(RB3LYP) =  -865.743619976     a.u. after   13 cycles
 SCF Done:  E(RB3LYP) =  -865.745048469     a.u. after   15 cycles
 SCF Done:  E(RB3LYP) =  -865.743551826     a.u. after   15 cycles
 SCF Done:  E(RB3LYP) =  -865.745767892     a.u. after   15 cycles
 SCF Done:  E(RB3LYP) =  -865.747746760     a.u. after   15 cycles
 SCF Done:  E(RB3LYP) =  -865.749531574     a.u. after   15 cycles
 SCF Done:  E(RB3LYP) =  -865.749839280     a.u. after   17 cycles
 SCF Done:  E(RB3LYP) =  -865.748148711     a.u. after   17 cycles
 SCF Done:  E(RB3LYP) =  -865.750234373     a.u. after   10 cycles
 SCF Done:  E(RB3LYP) =  -865.751031641     a.u. after    9 cycles
 SCF Done:  E(RB3LYP) =  -865.751045203     a.u. after    5 cycles
 SCF Done:  E(RB3LYP) =  -865.751045231     a.u. after    2 cycles
 Optimization completed.
    -- Stationary point found.
 Normal termination of Gaussian 16 at Thu Dec 26 16:18:50 2019.

 ----------------------------------------------------------------------
 # freq B3LYP/6-31G* scf=qc volume NMR pop=NPA density=current Geom=All
 Check Guess=Read
 ----------------------------------------------------------------------

 Structure from the checkpoint file:  "nucleophile_12.chk"
 -------------------
 Title Card Required
 -------------------
 Charge =  0 Multiplicity = 1

 SCF Done:  E(RB3LYP) =  -865.751045231     a.u. after    1 cycles

      1  C    Isotropic =   165.3212   Anisotropy =    30.5889

      2  C    Isotropic =    56.0058   Anisotropy =   178.4405

      3  C    Isotropic =    66.3388   Anisotropy =   137.5360

      4  C    Isotropic =    82.3711   Anisotropy =   145.2499

      5  C    Isotropic =    58.3794   Anisotropy =   142.5307

      6  N    Isotropic =    61.0197   Anisotropy =    96.2042

      7  C    Isotropic =   106.5894   Anisotropy =    30.0871

      8  C    Isotropic =   162.2824   Anisotropy =    11.6503

      9  C    Isotropic =   169.0143   Anisotropy =     6.4369

     10  C    Isotropic =   163.8787   Anisotropy =     8.5495

     11  C    Isotropic =   129.8298   Anisotropy =    48.4954

     12  O    Isotropic =   262.4108   Anisotropy =    77.8209

     13  N    Isotropic =   -58.9589   Anisotropy =   338.3256

     14  C    Isotropic =    65.0607   Anisotropy =   106.6703

     15  C    Isotropic =    64.4928   Anisotropy =   147.3915

     16  C    Isotropic =    72.4308   Anisotropy =   167.6699

     17  B    Isotropic =    83.3149   Anisotropy =    24.9907

     18  O    Isotropic =   209.1550   Anisotropy =    85.8738

     19  O    Isotropic =   220.6747   Anisotropy =    93.0584

     20  H    Isotropic =    30.2844   Anisotropy =     7.5503

     21  H    Isotropic =    29.0700   Anisotropy =     7.5435

     22  H    Isotropic =    29.5027   Anisotropy =     6.3084

     23  H    Isotropic =    25.1202   Anisotropy =     7.6361

     24  H    Isotropic =    24.5875   Anisotropy =     9.5662

     25  H    Isotropic =    26.3469   Anisotropy =     4.3999

     26  H    Isotropic =    29.4144   Anisotropy =     7.1700

     27  H    Isotropic =    30.2971   Anisotropy =     8.3037

     28  H    Isotropic =    29.8069   Anisotropy =     6.9129

     29  H    Isotropic =    30.5868   Anisotropy =    10.2444

     30  H    Isotropic =    30.9335   Anisotropy =     9.4865

     31  H    Isotropic =    30.3187   Anisotropy =     8.5309

     32  H    Isotropic =    28.8138   Anisotropy =     5.2913

     33  H    Isotropic =    28.6746   Anisotropy =     7.7935

     34  H    Isotropic =    24.5669   Anisotropy =     7.0169

     35  H    Isotropic =    27.8443   Anisotropy =    10.0351

     36  H    Isotropic =    28.0186   Anisotropy =    12.6960

  Exact polarizability: 226.666  -7.558 171.442   7.573  -0.932 103.335
 Approx polarizability: 312.694  -6.617 296.003  19.853   1.658 156.647

                      1                      2                      3
                      A                      A                      A
 Frequencies --     30.0787                40.5598                65.5068
 Red. masses --      4.1490                 5.0056                 5.9726
 Frc consts  --      0.0022                 0.0049                 0.0151
 IR Inten    --      0.4705                 0.0874                 1.7881

                      4                      5                      6
                      A                      A                      A
 Frequencies --     74.7623                97.2962               106.3883
 Red. masses --      1.0384                 4.1214                 4.9633
 Frc consts  --      0.0034                 0.0230                 0.0331
 IR Inten    --      0.1842                 0.0662                 1.6048

                      7                      8                      9
                      A                      A                      A
 Frequencies --    123.0056               154.8779               189.0951
 Red. masses --      3.8024                 4.7949                 4.4723
 Frc consts  --      0.0339                 0.0678                 0.0942
 IR Inten    --      0.9633                 1.7031                 0.8079

                     10                     11                     12
                      A                      A                      A
 Frequencies --    205.8126               242.0386               265.8816
 Red. masses --      3.3821                 3.8904                 3.7571
 Frc consts  --      0.0844                 0.1343                 0.1565
 IR Inten    --      0.9064                 1.8191                 4.7646

                     13                     14                     15
                      A                      A                      A
 Frequencies --    295.9152               324.2321               353.8857
 Red. masses --      3.0150                 4.9320                 2.4982
 Frc consts  --      0.1556                 0.3055                 0.1843
 IR Inten    --      1.0245                 8.3621                 0.8178

                     16                     17                     18
                      A                      A                      A
 Frequencies --    361.8151               371.9199               413.2630
 Red. masses --      3.5457                 3.0391                 3.9346
 Frc consts  --      0.2735                 0.2477                 0.3959
 IR Inten    --      2.9017                11.2125                 7.6079

                     19                     20                     21
                      A                      A                      A
 Frequencies --    454.9768               469.5815               506.0885
 Red. masses --      3.6202                 3.9546                 3.8979
 Frc consts  --      0.4415                 0.5138                 0.5882
 IR Inten    --      5.1366                 3.4337                 8.4582

                     22                     23                     24
                      A                      A                      A
 Frequencies --    509.9275               546.3021               554.5884
 Red. masses --      3.4898                 2.6512                 1.2947
 Frc consts  --      0.5346                 0.4662                 0.2346
 IR Inten    --     12.6711                 0.9686               141.9113

                     25                     26                     27
                      A                      A                      A
 Frequencies --    581.4741               595.3683               619.3325
 Red. masses --      3.2585                 1.9451                 3.4592
 Frc consts  --      0.6491                 0.4062                 0.7818
 IR Inten    --     28.8475                21.6939                27.8542

                     28                     29                     30
                      A                      A                      A
 Frequencies --    633.8456               648.8934               666.0647
 Red. masses --      1.7404                 5.4009                 6.5097
 Frc consts  --      0.4120                 1.3399                 1.7016
 IR Inten    --     19.1799                 5.2922                22.6870

                     31                     32                     33
                      A                      A                      A
 Frequencies --    697.8817               769.0528               793.2854
 Red. masses --      6.0103                 3.2452                 3.4739
 Frc consts  --      1.7247                 1.1308                 1.2880
 IR Inten    --     36.8392                11.4911                 2.3972

                     34                     35                     36
                      A                      A                      A
 Frequencies --    807.4966               825.9219               833.2323
 Red. masses --      3.2143                 2.9649                 1.5511
 Frc consts  --      1.2349                 1.1916                 0.6345
 IR Inten    --      4.6410                 7.6804                17.8286

                     37                     38                     39
                      A                      A                      A
 Frequencies --    862.1812               869.4193               887.3990
 Red. masses --      1.8593                 1.3973                 2.7794
 Frc consts  --      0.8143                 0.6223                 1.2896
 IR Inten    --     38.2223                 8.1776                12.8243

                     40                     41                     42
                      A                      A                      A
 Frequencies --    894.6769               910.4523               947.1527
 Red. masses --      2.9602                 5.4019                 1.5104
 Frc consts  --      1.3960                 2.6382                 0.7983
 IR Inten    --     52.8045                 9.7636                 1.0862

                     43                     44                     45
                      A                      A                      A
 Frequencies --    962.9648               978.0242              1016.0502
 Red. masses --      1.3027                 2.4823                 2.0053
 Frc consts  --      0.7118                 1.3989                 1.2197
 IR Inten    --      0.1266                 6.3157                19.0951

                     46                     47                     48
                      A                      A                      A
 Frequencies --   1029.5679              1049.6913              1061.1647
 Red. masses --      1.8795                 1.2948                 2.0823
 Frc consts  --      1.1738                 0.8405                 1.3815
 IR Inten    --     98.8631               185.9098                 2.7073

                     49                     50                     51
                      A                      A                      A
 Frequencies --   1063.9390              1068.4490              1072.3650
 Red. masses --      2.0876                 1.7462                 1.5166
 Frc consts  --      1.3923                 1.1745                 1.0275
 IR Inten    --     12.8638                67.0549                 3.3771

                     52                     53                     54
                      A                      A                      A
 Frequencies --   1085.5971              1118.9957              1146.8741
 Red. masses --      3.2216                 2.0477                 2.8322
 Frc consts  --      2.2370                 1.5107                 2.1948
 IR Inten    --     21.6932                68.5976                43.9837

                     55                     56                     57
                      A                      A                      A
 Frequencies --   1186.6179              1201.3157              1222.5994
 Red. masses --      1.3738                 2.4006                 1.7631
 Frc consts  --      1.1397                 2.0412                 1.5528
 IR Inten    --      1.8613                66.6701                45.9399

                     58                     59                     60
                      A                      A                      A
 Frequencies --   1238.7871              1250.0381              1261.7611
 Red. masses --      1.5741                 1.9146                 2.7129
 Frc consts  --      1.4232                 1.7627                 2.5448
 IR Inten    --     27.7465                21.4609                50.1125

                     61                     62                     63
                      A                      A                      A
 Frequencies --   1307.3465              1320.3939              1325.8757
 Red. masses --      1.2839                 1.8488                 1.5656
 Frc consts  --      1.2929                 1.8991                 1.6216
 IR Inten    --     22.2403                15.3154                24.4372

                     64                     65                     66
                      A                      A                      A
 Frequencies --   1355.4521              1362.6843              1377.2805
 Red. masses --      5.1671                 1.6333                 1.7056
 Frc consts  --      5.5932                 1.7869                 1.9062
 IR Inten    --    188.6577                20.0762                25.1700

                     67                     68                     69
                      A                      A                      A
 Frequencies --   1394.2034              1400.6072              1405.6940
 Red. masses --      1.6358                 2.2649                 1.8979
 Frc consts  --      1.8734                 2.6178                 2.2096
 IR Inten    --     36.1413                49.2259                10.5787

                     70                     71                     72
                      A                      A                      A
 Frequencies --   1410.0355              1416.2867              1418.1907
 Red. masses --      1.8015                 3.3387                 1.7594
 Frc consts  --      2.1103                 3.9457                 2.0848
 IR Inten    --    116.7527               102.3512                56.9735

                     73                     74                     75
                      A                      A                      A
 Frequencies --   1437.8406              1446.4197              1457.5985
 Red. masses --      1.4021                 1.3332                 2.5151
 Frc consts  --      1.7079                 1.6434                 3.1484
 IR Inten    --      2.7247                18.9060                84.3304

                     76                     77                     78
                      A                      A                      A
 Frequencies --   1476.7846              1498.9058              1511.8920
 Red. masses --      5.9297                 1.0950                 1.0890
 Frc consts  --      7.6193                 1.4494                 1.4666
 IR Inten    --     85.6870                 5.5123                 4.5563

                     79                     80                     81
                      A                      A                      A
 Frequencies --   1515.1272              1519.7658              1524.4214
 Red. masses --      1.0805                 1.1187                 1.0946
 Frc consts  --      1.4614                 1.5224                 1.4987
 IR Inten    --     13.5122                21.4255                 2.2330

                     82                     83                     84
                      A                      A                      A
 Frequencies --   1537.2152              1548.0776              1626.9679
 Red. masses --      1.0952                 3.5461                 6.5994
 Frc consts  --      1.5249                 5.0071                10.2923
 IR Inten    --      8.4761                33.8023                23.2507

                     85                     86                     87
                      A                      A                      A
 Frequencies --   1642.3456              3026.3027              3041.2653
 Red. masses --      7.0847                 1.0701                 1.0606
 Frc consts  --     11.2590                 5.7745                 5.7796
 IR Inten    --      1.8551                30.1842                32.2036

                     88                     89                     90
                      A                      A                      A
 Frequencies --   3056.8471              3057.1166              3059.1259
 Red. masses --      1.0723                 1.0359                 1.0629
 Frc consts  --      5.9033                 5.7042                 5.8606
 IR Inten    --      3.0090                32.6443                33.4369

                     91                     92                     93
                      A                      A                      A
 Frequencies --   3072.2413              3082.6263              3105.3592
 Red. masses --      1.0840                 1.1014                 1.1010
 Frc consts  --      6.0280                 6.1665                 6.2555
 IR Inten    --     52.7580                28.5536                49.3501

                     94                     95                     96
                      A                      A                      A
 Frequencies --   3117.2066              3117.7325              3126.5042
 Red. masses --      1.1006                 1.0975                 1.1031
 Frc consts  --      6.3012                 6.2854                 6.3528
 IR Inten    --     13.0572                42.7454                19.6879

                     97                     98                     99
                      A                      A                      A
 Frequencies --   3132.4692              3183.2674              3231.6989
 Red. masses --      1.0967                 1.0889                 1.0932
 Frc consts  --      6.3405                 6.5011                 6.7269
 IR Inten    --     14.9220                20.2185                 3.1418

                    100                    101                    102
                      A                      A                      A
 Frequencies --   3249.0848              3752.1759              3795.1180
 Red. masses --      1.0948                 1.0649                 1.0659
 Frc consts  --      6.8096                 8.8330                 9.0449
 IR Inten    --      6.1973                49.2795                37.0636

 - Thermochemistry -
 -------------------
 Temperature   298.150 Kelvin.  Pressure   1.00000 Atm.
 Atom     1 has atomic number  6 and mass  12.00000

 Molecular mass:   260.13322 amu.
 Principal axes and moments of inertia in atomic units:
                           1         2         3
     Eigenvalues --  2158.648188326.841309634.47322
           X            0.99985  -0.01716  -0.00244
           Y            0.01715   0.99984  -0.00453
           Z            0.00251   0.00449   0.99999
 This molecule is an asymmetric top.
 Rotational symmetry number  1.
 Warning -- assumption of classical behavior for rotation
           may cause significant error
 Rotational temperatures (Kelvin)      0.04012     0.01040     0.00899
 Rotational constants (GHZ):           0.83605     0.21674     0.18732
 Zero-point vibrational energy     783908.6 (Joules/Mol)
                                  187.35866 (Kcal/Mol)
 Warning -- explicit consideration of  27 degrees of freedom as
           vibrations may cause significant error
 Vibrational temperatures:     43.28    58.36    94.25   107.57   139.99
          (Kelvin)            153.07   176.98   222.83   272.07   296.12
                              348.24   382.54   425.76   466.50   509.16
                              520.57   535.11   594.59   654.61   675.62
                              728.15   733.67   786.01   797.93   836.61
                              856.60   891.08   911.96   933.61   958.32
                             1004.10  1106.50  1141.36  1161.81  1188.32
                             1198.84  1240.49  1250.90  1276.77  1287.24
                             1309.94  1362.74  1385.49  1407.16  1461.87
                             1481.32  1510.27  1526.78  1530.77  1537.26
                             1542.89  1561.93  1609.99  1650.10  1707.28
                             1728.43  1759.05  1782.34  1798.53  1815.39
                             1880.98  1899.75  1907.64  1950.19  1960.60
                             1981.60  2005.95  2015.16  2022.48  2028.73
                             2037.72  2040.46  2068.73  2081.08  2097.16
                             2124.76  2156.59  2175.28  2179.93  2186.60
                             2193.30  2211.71  2227.34  2340.84  2362.97
                             4354.17  4375.70  4398.12  4398.51  4401.40
                             4420.27  4435.21  4467.92  4484.97  4485.72
                             4498.34  4506.92  4580.01  4649.69  4674.71
                             5398.54  5460.33

 Zero-point correction=                           0.298575 (Hartree/Particle)
 Thermal correction to Energy=                    0.315419
 Thermal correction to Enthalpy=                  0.316363
 Thermal correction to Gibbs Free Energy=         0.253298
 Sum of electronic and zero-point Energies=           -865.452470
 Sum of electronic and thermal Energies=              -865.435626
 Sum of electronic and thermal Enthalpies=            -865.434682
 Sum of electronic and thermal Free Energies=         -865.497747

                     E (Thermal)             CV                S
                      KCal/Mol        Cal/Mol-Kelvin    Cal/Mol-Kelvin
 Total                  197.928             65.921            132.732
 Electronic               0.000              0.000              0.000
 Translational            0.889              2.981             42.568
 Rotational               0.889              2.981             33.515
 Vibrational            196.151             59.959             56.649
 Vibration     1          0.594              1.984              5.824
 Vibration     2          0.594              1.981              5.232
 Vibration     3          0.597              1.971              4.284
 Vibration     4          0.599              1.966              4.024
 Vibration     5          0.603              1.951              3.508
 Vibration     6          0.605              1.944              3.334
 Vibration     7          0.610              1.930              3.053
 Vibration     8          0.620              1.897              2.611
 Vibration     9          0.633              1.855              2.237
 Vibration    10          0.640              1.832              2.081
 Vibration    11          0.658              1.776              1.788
 Vibration    12          0.672              1.736              1.623
 Vibration    13          0.690              1.681              1.440
 Vibration    14          0.709              1.627              1.289
 Vibration    15          0.730              1.567              1.149
 Vibration    16          0.736              1.551              1.114
 Vibration    17          0.744              1.530              1.072
 Vibration    18          0.777              1.441              0.915
 Vibration    19          0.813              1.350              0.781
 Vibration    20          0.827              1.318              0.739
 Vibration    21          0.861              1.237              0.643
 Vibration    22          0.865              1.228              0.634
 Vibration    23          0.901              1.148              0.552
 Vibration    24          0.910              1.130              0.535
 Vibration    25          0.938              1.071              0.483
 Vibration    26          0.953              1.042              0.458
 Vibration    27          0.979              0.991              0.418

 Optimization completed.
    -- Stationary point found.
 Normal termination of Gaussian 16 at Thu Dec 26 16:32:27 2019.
 Gaussian 16:  ES64L-G16RevA.03 25-Dec-2016

 ----------------------------------------------------------------------
 # TD(NStates=10, Root=1) B3LYP/6-31G* scf=qc volume pop=NPA density=cu
 rrent Geom=AllCheck Guess=Read
 ----------------------------------------------------------------------

 Structure from the checkpoint file:  "nucleophile_13.chk"
 -------------------
 Title Card Required
 -------------------
 Charge =  0 Multiplicity = 1

                         Standard orientation:
 ---------------------------------------------------------------------
 Center     Atomic      Atomic             Coordinates (Angstroms)
 Number     Number       Type             X           Y           Z
 ---------------------------------------------------------------------
      1          6           0       -4.037892    1.891142   -0.247002
      2          6           0       -2.638909    1.345037   -0.040974
      3          6           0       -1.577545    2.275708    0.113909
      4          6           0       -0.257906    1.902342    0.309642
      5          6           0        0.004053    0.526498    0.369450
      6          7           0        1.169091   -0.177840    0.574975
      7          6           0        2.474397    0.397448    0.926577
      8          6           0        3.557694   -0.672055    1.109047
      9          6           0        4.037803   -1.248599   -0.231587
     10          6           0        4.374515   -0.113861   -1.210354
     11          6           0        3.200410    0.857381   -1.309423
     12          8           0        2.844237    1.382568   -0.021734
     13          7           0        0.938359   -1.520543    0.585111
     14          6           0       -0.354240   -1.681132    0.364342
     15          6           0       -1.029738   -0.427237    0.211988
     16          6           0       -2.377752   -0.033786   -0.009600
     17          5           0       -3.464993   -1.144029   -0.236083
     18          8           0       -3.175573   -2.319833   -0.894432
     19          8           0       -4.741174   -0.987842    0.228009
     20          1           0       -4.011956    2.971094   -0.424641
     21          1           0       -4.669684    1.706189    0.628637
     22          1           0       -4.542225    1.420356   -1.096879
     23          1           0       -1.814790    3.335758    0.064733
     24          1           0        0.536628    2.634876    0.395561
     25          1           0        2.343312    0.964858    1.854819
     26          1           0        3.191478   -1.461356    1.770188
     27          1           0        4.392829   -0.170132    1.613393
     28          1           0        3.250541   -1.884168   -0.652375
     29          1           0        4.913387   -1.887429   -0.065514
     30          1           0        4.608103   -0.510221   -2.206732
     31          1           0        5.259696    0.434694   -0.861451
     32          1           0        2.327932    0.363927   -1.762541
     33          1           0        3.446212    1.735449   -1.912972
     34          1           0       -0.766569   -2.682365    0.356444
     35          1           0       -2.282489   -2.313908   -1.266116
     36          1           0       -5.278838   -1.761254   -0.005573
 ---------------------------------------------------------------------

 SCF Done:  E(RB3LYP) =  -865.751045231     a.u. after    1 cycles

 Excitation energies and oscillator strengths:

 Excited State   1:      Singlet-A      4.3352 eV  286.00 nm  f=0.1013  <S**2>=0.000
      68 -> 71        -0.11025
      69 -> 70         0.67870
 This state for optimization and/or second-order correction.
 Total Energy, E(TD-HF/TD-DFT) =  -865.591730963
 Copying the excited state density for this state as the 1-particle RhoCI density.

 Excited State   2:      Singlet-A      4.7509 eV  260.97 nm  f=0.0720  <S**2>=0.000
      68 -> 70         0.60928
      69 -> 70        -0.10721
      69 -> 71         0.30899

 Excited State   3:      Singlet-A      5.4651 eV  226.87 nm  f=0.0022  <S**2>=0.000
      65 -> 70        -0.11027
      67 -> 70         0.68483

 Excited State   4:      Singlet-A      5.7705 eV  214.86 nm  f=0.3712  <S**2>=0.000
      66 -> 70        -0.15816
      68 -> 70        -0.26649
      69 -> 71         0.57900
      69 -> 72        -0.22147

 Excited State   5:      Singlet-A      5.8634 eV  211.46 nm  f=0.0031  <S**2>=0.000
      65 -> 70         0.54057
      66 -> 70        -0.38637
      67 -> 70         0.12111
      68 -> 71        -0.13628

 Excited State   6:      Singlet-A      5.9839 eV  207.20 nm  f=0.0165  <S**2>=0.000
      65 -> 70         0.40447
      66 -> 70         0.42799
      68 -> 71         0.31535
      69 -> 71         0.15072

 Excited State   7:      Singlet-A      6.3017 eV  196.75 nm  f=0.0461  <S**2>=0.000
      62 -> 70        -0.19698
      63 -> 70         0.41617
      64 -> 70        -0.35620
      66 -> 70         0.11095
      68 -> 71        -0.34489

 Excited State   8:      Singlet-A      6.3722 eV  194.57 nm  f=0.1372  <S**2>=0.000
      62 -> 70        -0.12897
      63 -> 70         0.24524
      64 -> 70        -0.25755
      65 -> 70        -0.10241
      66 -> 70        -0.25961
      68 -> 70         0.10809
      68 -> 71         0.45113
      69 -> 71        -0.10070
      69 -> 72        -0.13660

 Excited State   9:      Singlet-A      6.5298 eV  189.87 nm  f=0.3277  <S**2>=0.000
      66 -> 70        -0.17291
      67 -> 71        -0.12280
      68 -> 70        -0.14304
      69 -> 72         0.61038

 Excited State  10:      Singlet-A      6.7172 eV  184.58 nm  f=0.0315  <S**2>=0.000
      67 -> 71         0.66694
      68 -> 72         0.10834
      69 -> 72         0.10280

 The electronic state is 1-A.
 Alpha  occ. eigenvalues --  -19.15857 -19.15779 -19.15347 -14.39946 -14.35769
 Alpha  occ. eigenvalues --  -10.28048 -10.23234 -10.22002 -10.20775 -10.19494
 Alpha  occ. eigenvalues --  -10.19272 -10.19016 -10.18836 -10.18690 -10.18576
 Alpha  occ. eigenvalues --  -10.18374 -10.17231 -10.17123  -6.78196  -1.05893
 Alpha  occ. eigenvalues --   -1.03326  -1.02641  -0.99917  -0.85015  -0.83928
 Alpha  occ. eigenvalues --   -0.80005  -0.77609  -0.75409  -0.73953  -0.68492
 Alpha  occ. eigenvalues --   -0.65289  -0.64585  -0.61903  -0.59608  -0.58530
 Alpha  occ. eigenvalues --   -0.56338  -0.54683  -0.52770  -0.51545  -0.50903
 Alpha  occ. eigenvalues --   -0.48332  -0.47103  -0.45993  -0.45201  -0.44763
 Alpha  occ. eigenvalues --   -0.43608  -0.42909  -0.42230  -0.41095  -0.40724
 Alpha  occ. eigenvalues --   -0.39353  -0.38325  -0.38003  -0.37842  -0.37419
 Alpha  occ. eigenvalues --   -0.37066  -0.35911  -0.35099  -0.33893  -0.33076
 Alpha  occ. eigenvalues --   -0.32819  -0.31362  -0.30988  -0.30886  -0.29142
 Alpha  occ. eigenvalues --   -0.28279  -0.26399  -0.23363  -0.21297
 Alpha virt. eigenvalues --   -0.03728   0.01093   0.04789   0.07942   0.08122
 Alpha virt. eigenvalues --    0.09065   0.10329   0.11322   0.11765   0.12654
 Alpha virt. eigenvalues --    0.13752   0.14154   0.14771   0.15311   0.16017

 Mulliken charges:
               1
     1  C   -0.510860
     2  C    0.103746
     3  C   -0.209786
     4  C   -0.174466
     5  C    0.376955
     6  N   -0.372936
     7  C    0.240287
     8  C   -0.280079
     9  C   -0.282369
    10  C   -0.276777
    11  C   -0.044765
    12  O   -0.470293
    13  N   -0.305742
    14  C    0.011434
    15  C   -0.076408
    16  C   -0.018742
    17  B    0.335604
    18  O   -0.586392
    19  O   -0.569057
    20  H    0.146828
    21  H    0.183096
    22  H    0.161412
    23  H    0.115433
    24  H    0.144177
    25  H    0.173281
    26  H    0.175186
    27  H    0.149308
    28  H    0.166480
    29  H    0.142582
    30  H    0.141107
    31  H    0.143584
    32  H    0.145140
    33  H    0.155854
    34  H    0.166696
    35  H    0.401118
    36  H    0.399367
 Sum of Mulliken charges =  -0.00000

 Dipole moment (field-independent basis, Debye):
    X=              2.8574    Y=             -0.3208    Z=             -0.9234  Tot=              3.0199
 Quadrupole moment (field-independent basis, Debye-Ang):
   XX=           -103.2820   YY=           -110.6677   ZZ=           -108.2627
   XY=              0.0042   XZ=              1.2639   YZ=              0.7547

 Summary of Natural Population Analysis:

                                       Natural Population
                Natural  -----------------------------------------------
    Atom  No    Charge         Core      Valence    Rydberg      Total
 -----------------------------------------------------------------------
      C    1   -0.69110      1.99939     4.68399    0.00772     6.69110
      C    2    0.06322      1.99905     3.92243    0.01530     5.93678
      C    3   -0.27458      1.99909     4.26008    0.01541     6.27458
      C    4   -0.28831      1.99900     4.27212    0.01719     6.28831
      C    5    0.14757      1.99899     3.83336    0.02009     5.85243
      N    6   -0.12670      1.99928     5.10807    0.01935     7.12670
      C    7    0.26915      1.99916     3.70349    0.02819     5.73085
      C    8   -0.49922      1.99929     4.48647    0.01346     6.49922
      C    9   -0.46806      1.99932     4.45622    0.01251     6.46806
      C   10   -0.49302      1.99932     4.48259    0.01110     6.49302
      C   11   -0.11399      1.99925     4.09555    0.01919     6.11399
      O   12   -0.58019      1.99980     6.56830    0.01209     8.58019
      N   13   -0.34531      1.99948     5.31828    0.02754     7.34531
      C   14    0.02728      1.99923     3.94914    0.02435     5.97272
      C   15   -0.12296      1.99904     4.10806    0.01586     6.12296
      C   16   -0.40476      1.99886     4.38680    0.01910     6.40476
      B   17    1.07409      1.99923     1.89818    0.02849     3.92591
      O   18   -0.90820      1.99976     6.89869    0.00975     8.90820
      O   19   -0.89045      1.99975     6.88080    0.00991     8.89045
      H   20    0.23254      0.00000     0.76655    0.00091     0.76746
      H   21    0.26050      0.00000     0.73792    0.00158     0.73950
      H   22    0.24651      0.00000     0.75163    0.00186     0.75349
      H   23    0.23085      0.00000     0.76822    0.00093     0.76915
      H   24    0.24692      0.00000     0.75153    0.00155     0.75308
      H   25    0.25678      0.00000     0.74075    0.00247     0.74322
      H   26    0.26828      0.00000     0.73025    0.00147     0.73172
      H   27    0.24611      0.00000     0.75231    0.00158     0.75389
      H   28    0.24761      0.00000     0.75029    0.00210     0.75239
      H   29    0.24454      0.00000     0.75440    0.00106     0.75546
      H   30    0.24469      0.00000     0.75405    0.00126     0.75531
      H   31    0.23326      0.00000     0.76456    0.00217     0.76674
      H   32    0.20718      0.00000     0.79063    0.00219     0.79282
      H   33    0.23585      0.00000     0.76324    0.00091     0.76415
      H   34    0.23793      0.00000     0.76083    0.00124     0.76207
      H   35    0.49505      0.00000     0.50336    0.00158     0.50495
      H   36    0.49092      0.00000     0.50697    0.00211     0.50908
 =======================================================================
   * Total *   -0.00000     37.98631    99.66010    0.35359   138.00000

 Normal termination of Gaussian 16 at Thu Dec 26 16:46:42 2019.
