 Gaussian 16, Revision A.03,

 -----------------------------------------
 # opt=CalcFc B3LYP/6-31G* scf=xqc scf=xqc
 -----------------------------------------

 -------------------
 Title Card Required
 -------------------
 Symbolic Z-matrix:
 Charge =  0 Multiplicity = 1

 SCF Done:  E(RB3LYP) =  -1036.28195398     A.U. after   14 cycles
 SCF Done:  E(RB3LYP) =  -1036.28709009     A.U. after   14 cycles
 SCF Done:  E(RB3LYP) =  -1036.29505341     A.U. after   13 cycles
 SCF Done:  E(RB3LYP) =  -1036.29157753     A.U. after   13 cycles
 SCF Done:  E(RB3LYP) =  -1036.29658181     A.U. after   13 cycles
 SCF Done:  E(RB3LYP) =  -1036.29220650     A.U. after   14 cycles
 SCF Done:  E(RB3LYP) =  -1036.29710569     A.U. after   13 cycles
 SCF Done:  E(RB3LYP) =  -1036.29462843     A.U. after   14 cycles
 SCF Done:  E(RB3LYP) =  -1036.29790792     A.U. after   12 cycles
 SCF Done:  E(RB3LYP) =  -1036.29805053     A.U. after   12 cycles
 SCF Done:  E(RB3LYP) =  -1036.29817877     A.U. after    9 cycles
 SCF Done:  E(RB3LYP) =  -1036.29818765     A.U. after   10 cycles
 SCF Done:  E(RB3LYP) =  -1036.29819059     A.U. after   10 cycles
 SCF Done:  E(RB3LYP) =  -1036.29820364     A.U. after   10 cycles
 SCF Done:  E(RB3LYP) =  -1036.29822920     A.U. after   11 cycles
 SCF Done:  E(RB3LYP) =  -1036.29822632     A.U. after   11 cycles
 SCF Done:  E(RB3LYP) =  -1036.29823060     A.U. after   11 cycles
 SCF Done:  E(RB3LYP) =  -1036.29823272     A.U. after    7 cycles
 Optimization completed.
    -- Stationary point found.
 Normal termination of Gaussian 16 at Sun Dec  8 18:20:44 2019.

 ----------------------------------------------------------------------
 # freq B3LYP/6-31G* scf=xqc volume NMR pop=NPA density=current Geom=Al
 lCheck Guess=Read
 ----------------------------------------------------------------------

 Structure from the checkpoint file:  "direct_arylation_ligand38_conf292.chk"
 -------------------
 Title Card Required
 -------------------
 Charge =  0 Multiplicity = 1

 SCF Done:  E(RB3LYP) =  -1036.29823272     A.U. after    1 cycles

      1  P    Isotropic =   361.4428   Anisotropy =    39.6670

      2  C    Isotropic =    56.1606   Anisotropy =   179.4228

      3  C    Isotropic =    60.9827   Anisotropy =   164.1019

      4  C    Isotropic =    68.7249   Anisotropy =   164.1220

      5  C    Isotropic =    68.1579   Anisotropy =   167.3559

      6  C    Isotropic =    68.6776   Anisotropy =   163.8999

      7  C    Isotropic =    62.5612   Anisotropy =   174.1058

      8  C    Isotropic =    56.1021   Anisotropy =   179.4687

      9  C    Isotropic =    62.6344   Anisotropy =   174.0568

     10  C    Isotropic =    68.6876   Anisotropy =   163.8901

     11  C    Isotropic =    68.1793   Anisotropy =   167.2778

     12  C    Isotropic =    68.7302   Anisotropy =   164.0942

     13  C    Isotropic =    61.0559   Anisotropy =   164.1687

     14  C    Isotropic =    56.1046   Anisotropy =   179.4567

     15  C    Isotropic =    60.9898   Anisotropy =   164.0822

     16  C    Isotropic =    68.7158   Anisotropy =   164.1365

     17  C    Isotropic =    68.1554   Anisotropy =   167.3545

     18  C    Isotropic =    68.6866   Anisotropy =   163.8760

     19  C    Isotropic =    62.5599   Anisotropy =   174.0583

     20  H    Isotropic =    24.6109   Anisotropy =     9.2467

     21  H    Isotropic =    24.9271   Anisotropy =     4.5857

     22  H    Isotropic =    25.0189   Anisotropy =     3.6421

     23  H    Isotropic =    25.0459   Anisotropy =     6.0870

     24  H    Isotropic =    25.3932   Anisotropy =    12.2239

     25  H    Isotropic =    25.4018   Anisotropy =    12.2412

     26  H    Isotropic =    25.0495   Anisotropy =     6.0861

     27  H    Isotropic =    25.0243   Anisotropy =     3.6349

     28  H    Isotropic =    24.9311   Anisotropy =     4.5849

     29  H    Isotropic =    24.6159   Anisotropy =     9.2615

     30  H    Isotropic =    24.6107   Anisotropy =     9.2491

     31  H    Isotropic =    24.9252   Anisotropy =     4.5905

     32  H    Isotropic =    25.0197   Anisotropy =     3.6427

     33  H    Isotropic =    25.0482   Anisotropy =     6.0853

     34  H    Isotropic =    25.3972   Anisotropy =    12.2175

  Exact polarizability: 224.231  -0.090 223.947   0.013  -0.128 165.133
 Approx polarizability: 331.063  -0.213 330.527   0.026  -0.302 308.224

                      1                      2                      3
                      A                      A                      A
 Frequencies --     21.8698                24.2430                37.9753
 Red. masses --      3.7966                 3.7962                 3.6889
 Frc consts  --      0.0011                 0.0013                 0.0031
 IR Inten    --      0.2802                 0.2806                 0.0025

                      4                      5                      6
                      A                      A                      A
 Frequencies --     53.2828                53.4962                70.6383
 Red. masses --      5.2486                 5.2591                 5.1669
 Frc consts  --      0.0088                 0.0089                 0.0152
 IR Inten    --      0.0860                 0.0864                 0.3101

                      7                      8                      9
                      A                      A                      A
 Frequencies --    181.4566               202.3239               202.7059
 Red. masses --      4.5602                 4.6426                 4.6428
 Frc consts  --      0.0885                 0.1120                 0.1124
 IR Inten    --      0.3531                 1.1361                 1.1371

                     10                     11                     12
                      A                      A                      A
 Frequencies --    245.5703               259.6991               260.1269
 Red. masses --      5.7401                 4.7193                 4.7233
 Frc consts  --      0.2040                 0.1875                 0.1883
 IR Inten    --      0.4814                 0.2265                 0.2239

                     13                     14                     15
                      A                      A                      A
 Frequencies --    408.7673               408.8690               412.3709
 Red. masses --      3.0788                 3.0799                 3.5613
 Frc consts  --      0.3031                 0.3034                 0.3568
 IR Inten    --      1.9532                 1.9729                 0.1516

                     16                     17                     18
                      A                      A                      A
 Frequencies --    417.1375               429.3031               429.6180
 Red. masses --      4.6672                 7.3005                 7.3150
 Frc consts  --      0.4785                 0.7927                 0.7955
 IR Inten    --      0.5713                 7.6460                 7.7466

                     19                     20                     21
                      A                      A                      A
 Frequencies --    509.4248               509.5821               516.3325
 Red. masses --      4.2461                 4.2474                 4.5897
 Frc consts  --      0.6492                 0.6498                 0.7209
 IR Inten    --     26.1341                26.1652                11.9719

                     22                     23                     24
                      A                      A                      A
 Frequencies --    632.7097               632.7546               633.3729
 Red. masses --      6.4271                 6.4271                 6.4368
 Frc consts  --      1.5159                 1.5161                 1.5214
 IR Inten    --      0.1821                 0.1807                 0.0162

                     25                     26                     27
                      A                      A                      A
 Frequencies --    691.9034               705.1717               705.2296
 Red. masses --      6.5809                 5.6912                 5.7641
 Frc consts  --      1.8562                 1.6674                 1.6891
 IR Inten    --      0.7786                 1.1872                 1.1432

                     28                     29                     30
                      A                      A                      A
 Frequencies --    712.1851               712.3471               713.2612
 Red. masses --      2.2048                 2.1962                 2.1327
 Frc consts  --      0.6589                 0.6566                 0.6393
 IR Inten    --     26.3899                26.3607                16.6104

                     31                     32                     33
                      A                      A                      A
 Frequencies --    761.3884               762.8920               762.9426
 Red. masses --      1.6157                 1.6493                 1.6471
 Frc consts  --      0.5518                 0.5656                 0.5649
 IR Inten    --     19.1501                24.9145                24.9002

                     34                     35                     36
                      A                      A                      A
 Frequencies --    866.1497               866.2344               868.7037
 Red. masses --      1.2478                 1.2477                 1.2463
 Frc consts  --      0.5515                 0.5516                 0.5541
 IR Inten    --      0.2307                 0.2197                 0.1337

                     37                     38                     39
                      A                      A                      A
 Frequencies --    932.9314               933.0170               934.2063
 Red. masses --      1.3442                 1.3441                 1.3386
 Frc consts  --      0.6893                 0.6894                 0.6883
 IR Inten    --      1.2594                 1.2540                 0.0341

                     40                     41                     42
                      A                      A                      A
 Frequencies --    975.7828               975.8515               977.5907
 Red. masses --      1.3614                 1.3611                 1.3557
 Frc consts  --      0.7637                 0.7637                 0.7634
 IR Inten    --      0.0170                 0.0151                 0.1423

                     43                     44                     45
                      A                      A                      A
 Frequencies --   1000.3776              1000.3902              1001.0920
 Red. masses --      1.2542                 1.2544                 1.2526
 Frc consts  --      0.7395                 0.7396                 0.7396
 IR Inten    --      0.0778                 0.0800                 0.0005

                     46                     47                     48
                      A                      A                      A
 Frequencies --   1015.3741              1015.3819              1015.7644
 Red. masses --      6.3112                 6.3132                 6.3113
 Frc consts  --      3.8337                 3.8349                 3.8366
 IR Inten    --      4.3704                 4.3684                 0.0436

                     49                     50                     51
                      A                      A                      A
 Frequencies --   1052.6924              1052.7564              1052.9256
 Red. masses --      3.3101                 3.3194                 3.2552
 Frc consts  --      2.1612                 2.1675                 2.1263
 IR Inten    --      2.0897                 2.0773                 0.0483

                     52                     53                     54
                      A                      A                      A
 Frequencies --   1107.7957              1108.2749              1109.5391
 Red. masses --      1.8798                 1.8464                 1.6555
 Frc consts  --      1.3592                 1.3362                 1.2008
 IR Inten    --      4.1709                 3.6534                 2.8071

                     55                     56                     57
                      A                      A                      A
 Frequencies --   1110.7749              1110.8787              1116.2587
 Red. masses --      2.1950                 2.2432                 2.6125
 Frc consts  --      1.5957                 1.6310                 1.9179
 IR Inten    --      9.5006                 9.9912                 1.2671

                     58                     59                     60
                      A                      A                      A
 Frequencies --   1193.4964              1193.9137              1193.9328
 Red. masses --      1.1033                 1.1000                 1.1000
 Frc consts  --      0.9260                 0.9238                 0.9239
 IR Inten    --      0.0013                 0.1301                 0.1294

                     61                     62                     63
                      A                      A                      A
 Frequencies --   1219.1675              1219.5921              1220.9619
 Red. masses --      1.1475                 1.1478                 1.1474
 Frc consts  --      1.0049                 1.0059                 1.0078
 IR Inten    --      6.0654                 5.9394                 0.4822

                     64                     65                     66
                      A                      A                      A
 Frequencies --   1325.0442              1328.6279              1328.9631
 Red. masses --      3.4992                 3.4735                 3.5369
 Frc consts  --      3.6197                 3.6127                 3.6804
 IR Inten    --      2.6314                 2.4279                 2.4498

                     67                     68                     69
                      A                      A                      A
 Frequencies --   1365.0871              1365.3754              1365.8103
 Red. masses --      1.6600                 1.6512                 1.6351
 Frc consts  --      1.8225                 1.8137                 1.7971
 IR Inten    --      0.1449                 1.1069                 2.1529

                     70                     71                     72
                      A                      A                      A
 Frequencies --   1480.5105              1480.9397              1481.0401
 Red. masses --      2.1107                 2.1147                 2.1167
 Frc consts  --      2.7258                 2.7326                 2.7355
 IR Inten    --     16.6054                 6.5797                 6.6797

                     73                     74                     75
                      A                      A                      A
 Frequencies --   1531.1032              1531.5474              1531.6923
 Red. masses --      2.0149                 1.9990                 1.9970
 Frc consts  --      2.7830                 2.7626                 2.7604
 IR Inten    --      2.0403                10.1030                10.1647

                     76                     77                     78
                      A                      A                      A
 Frequencies --   1630.1714              1630.4187              1630.4788
 Red. masses --      5.1000                 5.1126                 5.1119
 Frc consts  --      7.9853                 8.0074                 8.0068
 IR Inten    --      0.3996                 0.0444                 0.0463

                     79                     80                     81
                      A                      A                      A
 Frequencies --   1646.1496              1646.1857              1647.9608
 Red. masses --      5.2717                 5.2694                 5.2824
 Frc consts  --      8.4167                 8.4133                 8.4524
 IR Inten    --      3.4838                 3.5332                 0.3209

                     82                     83                     84
                      A                      A                      A
 Frequencies --   3176.0561              3176.1308              3176.1959
 Red. masses --      1.0854                 1.0853                 1.0853
 Frc consts  --      6.4506                 6.4508                 6.4510
 IR Inten    --      2.0947                 1.9904                 1.9168

                     85                     86                     87
                      A                      A                      A
 Frequencies --   3182.6333              3182.6855              3182.7788
 Red. masses --      1.0875                 1.0875                 1.0876
 Frc consts  --      6.4901                 6.4904                 6.4912
 IR Inten    --      0.7383                 0.6533                 0.3069

                     88                     89                     90
                      A                      A                      A
 Frequencies --   3192.8289              3192.8788              3193.0006
 Red. masses --      1.0917                 1.0916                 1.0917
 Frc consts  --      6.5567                 6.5569                 6.5579
 IR Inten    --     11.2497                11.9601                44.9873

                     91                     92                     93
                      A                      A                      A
 Frequencies --   3203.9205              3203.9486              3204.3358
 Red. masses --      1.0941                 1.0941                 1.0942
 Frc consts  --      6.6172                 6.6175                 6.6198
 IR Inten    --     41.5422                41.6868                 4.3157

                     94                     95                     96
                      A                      A                      A
 Frequencies --   3210.0867              3210.1507              3211.0319
 Red. masses --      1.0957                 1.0956                 1.0956
 Frc consts  --      6.6522                 6.6520                 6.6556
 IR Inten    --     20.1660                19.5947                16.3348

 - Thermochemistry -
 -------------------
 Temperature   298.150 Kelvin.  Pressure   1.00000 Atm.
 Atom     1 has atomic number 15 and mass  30.97376

 Molecular mass:   262.09114 amu.
 Principal axes and moments of inertia in atomic units:
                           1         2         3
     Eigenvalues --  5160.884255165.822718680.05717
           X            0.99981  -0.01944   0.00001
           Y            0.01944   0.99981  -0.00003
           Z           -0.00001   0.00003   1.00000
 This molecule is an asymmetric top.
 Rotational symmetry number  1.
 Warning -- assumption of classical behavior for rotation
           may cause significant error
 Rotational temperatures (Kelvin)      0.01678     0.01677     0.00998
 Rotational constants (GHZ):           0.34970     0.34936     0.20792
 Zero-point vibrational energy     719963.7 (Joules/Mol)
                                  172.07545 (Kcal/Mol)
 Warning -- explicit consideration of  21 degrees of freedom as
           vibrations may cause significant error
 Vibrational temperatures:     31.47    34.88    54.64    76.66    76.97
          (Kelvin)            101.63   261.08   291.10   291.65   353.32
                              373.65   374.26   588.12   588.27   593.31
                              600.17   617.67   618.12   732.95   733.18
                              742.89   910.33   910.39   911.28   995.49
                             1014.58  1014.67  1024.68  1024.91  1026.22
                             1095.47  1097.63  1097.70  1246.20  1246.32
                             1249.87  1342.28  1342.40  1344.11  1403.93
                             1404.03  1406.54  1439.32  1439.34  1440.35
                             1460.90  1460.91  1461.46  1514.59  1514.68
                             1514.93  1593.87  1594.56  1596.38  1598.16
                             1598.31  1606.05  1717.18  1717.78  1717.80
                             1754.11  1754.72  1756.69  1906.44  1911.60
                             1912.08  1964.06  1964.47  1965.10  2130.12
                             2130.74  2130.89  2202.92  2203.56  2203.76
                             2345.45  2345.81  2345.90  2368.44  2368.49
                             2371.05  4569.64  4569.74  4569.84  4579.10
                             4579.17  4579.31  4593.77  4593.84  4594.02
                             4609.73  4609.77  4610.32  4618.60  4618.69
                             4619.96

 Zero-point correction=                           0.274220 (Hartree/Particle)
 Thermal correction to Energy=                    0.290143
 Thermal correction to Enthalpy=                  0.291087
 Thermal correction to Gibbs Free Energy=         0.227727
 Sum of electronic and zero-point Energies=          -1036.024013
 Sum of electronic and thermal Energies=             -1036.008090
 Sum of electronic and thermal Enthalpies=           -1036.007146
 Sum of electronic and thermal Free Energies=        -1036.070506

                     E (Thermal)             CV                S
                      KCal/Mol        Cal/Mol-Kelvin    Cal/Mol-Kelvin
 Total                  182.067             62.537            133.352
 Electronic               0.000              0.000              0.000
 Translational            0.889              2.981             42.590
 Rotational               0.889              2.981             33.803
 Vibrational            180.290             56.575             56.959
 Vibration     1          0.593              1.985              6.457
 Vibration     2          0.593              1.985              6.252
 Vibration     3          0.594              1.982              5.362
 Vibration     4          0.596              1.976              4.692
 Vibration     5          0.596              1.976              4.684
 Vibration     6          0.598              1.968              4.135
 Vibration     7          0.630              1.865              2.313
 Vibration     8          0.639              1.837              2.112
 Vibration     9          0.639              1.836              2.108
 Vibration    10          0.660              1.770              1.762
 Vibration    11          0.668              1.746              1.664
 Vibration    12          0.668              1.746              1.661
 Vibration    13          0.773              1.451              0.931
 Vibration    14          0.773              1.451              0.931
 Vibration    15          0.776              1.443              0.918
 Vibration    16          0.780              1.433              0.902
 Vibration    17          0.791              1.406              0.861
 Vibration    18          0.791              1.406              0.860
 Vibration    19          0.865              1.229              0.635
 Vibration    20          0.865              1.229              0.635
 Vibration    21          0.871              1.214              0.619

                           ! Non-Optimized Parameters !
 Normal termination of Gaussian 16 at Sun Dec  8 18:36:49 2019.
 Gaussian 16:  ES64L-G16RevA.03 25-Dec-2016

 ----------------------------------------------------------------------
 # TD(NStates=10, Root=1) B3LYP/6-31G* scf=xqc volume pop=NPA density=c
 urrent Geom=AllCheck Guess=Read
 ----------------------------------------------------------------------

 Structure from the checkpoint file:  "direct_arylation_ligand38_conf293.chk"
 -------------------
 Title Card Required
 -------------------
 Charge =  0 Multiplicity = 1

                         Standard orientation:
 ---------------------------------------------------------------------
 Center     Atomic      Atomic             Coordinates (Angstroms)
 Number     Number       Type             X           Y           Z
 ---------------------------------------------------------------------
      1         15           0        0.000596    0.000194   -1.206562
      2          6           0        1.663450    0.161817   -0.402497
      3          6           0        2.739332   -0.484290   -1.034708
      4          6           0        4.028764   -0.409545   -0.508474
      5          6           0        4.268261    0.330038    0.651628
      6          6           0        3.211177    0.988513    1.281777
      7          6           0        1.918058    0.903947    0.760929
      8          6           0       -0.691318   -1.520804   -0.403044
      9          6           0       -0.171107   -2.117811    0.755422
     10          6           0       -0.745282   -3.279711    1.275991
     11          6           0       -1.849793   -3.860208    0.650626
     12          6           0       -2.375376   -3.277548   -0.504592
     13          6           0       -1.794542   -2.123901   -1.030690
     14          6           0       -0.971257    1.359047   -0.402322
     15          6           0       -0.950003    2.614101   -1.033998
     16          6           0       -1.659624    3.693026   -0.507184
     17          6           0       -2.419642    3.530027    0.652979
     18          6           0       -2.461014    2.285052    1.282606
     19          6           0       -1.741082    1.207849    0.761157
     20          1           0        2.564147   -1.046069   -1.949491
     21          1           0        4.847574   -0.919235   -1.009764
     22          1           0        5.274004    0.398053    1.058014
     23          1           0        3.391353    1.569983    2.182546
     24          1           0        1.104386    1.421423    1.260185
     25          1           0        0.688252   -1.676426    1.251160
     26          1           0       -0.327984   -3.730652    2.172915
     27          1           0       -2.294504   -4.764920    1.056849
     28          1           0       -3.230725   -3.727285   -1.002227
     29          1           0       -2.197467   -1.687189   -1.941771
     30          1           0       -0.376076    2.743791   -1.948822
     31          1           0       -1.627902    4.657209   -1.008054
     32          1           0       -2.981476    4.366751    1.059831
     33          1           0       -3.054449    2.149851    2.183447
     34          1           0       -1.782103    0.244216    1.259975
 ---------------------------------------------------------------------

 SCF Done:  E(RB3LYP) =  -1036.29823272     A.U. after    3 cycles

 Excitation energies and oscillator strengths:

 Excited State   1:      Singlet-A      4.5090 eV  274.97 nm  f=0.1271  <S**2>=0.000
      69 -> 70         0.69706
 This state for optimization and/or second-order correction.
 Total Energy, E(TD-HF/TD-DFT) =  -1036.13253138
 Copying the excited state density for this state as the 1-particle RhoCI density.

 Excited State   2:      Singlet-A      4.5124 eV  274.76 nm  f=0.1285  <S**2>=0.000
      69 -> 71         0.69701

 Excited State   3:      Singlet-A      4.7579 eV  260.58 nm  f=0.0022  <S**2>=0.000
      67 -> 70        -0.12314
      68 -> 71        -0.12388
      69 -> 72         0.67459

 Excited State   4:      Singlet-A      5.0576 eV  245.14 nm  f=0.0002  <S**2>=0.000
      66 -> 70        -0.16780
      67 -> 71        -0.12683
      68 -> 70        -0.12683
      69 -> 74         0.63029

 Excited State   5:      Singlet-A      5.0590 eV  245.08 nm  f=0.0002  <S**2>=0.000
      66 -> 71         0.16873
      67 -> 70         0.12787
      68 -> 71        -0.12768
      69 -> 75         0.62936

 Excited State   6:      Singlet-A      5.1515 eV  240.68 nm  f=0.0085  <S**2>=0.000
      69 -> 73         0.67907

 Excited State   7:      Singlet-A      5.4272 eV  228.45 nm  f=0.0146  <S**2>=0.000
      63 -> 72         0.16611
      64 -> 74        -0.14131
      65 -> 75        -0.13785
      67 -> 70         0.42525
      68 -> 71         0.41515
      69 -> 72         0.16540

 Excited State   8:      Singlet-A      5.5135 eV  224.87 nm  f=0.0005  <S**2>=0.000
      63 -> 74         0.14394
      64 -> 70         0.12709
      64 -> 72        -0.22022
      64 -> 75         0.10347
      65 -> 71         0.12564
      65 -> 72         0.17674
      65 -> 74         0.10331
      66 -> 70         0.22713
      67 -> 70         0.11795
      67 -> 71         0.23927
      68 -> 70         0.24810
      68 -> 71        -0.12005
      68 -> 72         0.16294
      69 -> 74         0.28703

 Excited State   9:      Singlet-A      5.5153 eV  224.80 nm  f=0.0004  <S**2>=0.000
      63 -> 75         0.14460
      64 -> 71         0.12057
      64 -> 72        -0.17718
      64 -> 74         0.10096
      65 -> 70        -0.12534
      65 -> 72        -0.22036
      65 -> 75        -0.10465
      66 -> 71        -0.22493
      67 -> 70        -0.23692
      67 -> 71         0.12017
      67 -> 72         0.16390
      68 -> 70         0.12090
      68 -> 71         0.25297
      69 -> 75         0.28850

 Excited State  10:      Singlet-A      5.6179 eV  220.69 nm  f=0.0009  <S**2>=0.000
      67 -> 71        -0.47263
      68 -> 70         0.48645

 The electronic state is 1-A.
 Alpha  occ. eigenvalues --  -77.08112 -10.19448 -10.19446 -10.19446 -10.19149
 Alpha  occ. eigenvalues --  -10.19148 -10.19142 -10.19119 -10.19117 -10.19114
 Alpha  occ. eigenvalues --  -10.19033 -10.19032 -10.19027 -10.19009 -10.19008
 Alpha  occ. eigenvalues --  -10.19004 -10.18964 -10.18963 -10.18958  -6.54843
 Alpha  occ. eigenvalues --   -4.71102  -4.71102  -4.70601  -0.85560  -0.84847
 Alpha  occ. eigenvalues --   -0.84844  -0.76669  -0.74366  -0.74365  -0.74329
 Alpha  occ. eigenvalues --   -0.73822  -0.73820  -0.64436  -0.60337  -0.60307
 Alpha  occ. eigenvalues --   -0.60305  -0.59207  -0.59206  -0.55449  -0.51436
 Alpha  occ. eigenvalues --   -0.51434  -0.49296  -0.45440  -0.45438  -0.44775
 Alpha  occ. eigenvalues --   -0.44344  -0.44343  -0.44068  -0.41946  -0.41869
 Alpha  occ. eigenvalues --   -0.41867  -0.40380  -0.40376  -0.36843  -0.36354
 Alpha  occ. eigenvalues --   -0.36349  -0.35898  -0.34253  -0.34250  -0.34224
 Alpha  occ. eigenvalues --   -0.31885  -0.31882  -0.26773  -0.25451  -0.25443
 Alpha  occ. eigenvalues --   -0.25242  -0.24705  -0.24703  -0.21146
 Alpha virt. eigenvalues --   -0.01885  -0.01876  -0.00829   0.00173   0.00424
 Alpha virt. eigenvalues --    0.00432   0.06877   0.06892   0.09492   0.11038
 Alpha virt. eigenvalues --    0.11040   0.13902   0.14528   0.14530   0.15165

 Mulliken charges:
               1
     1  P    0.450688
     2  C   -0.129784
     3  C   -0.176202
     4  C   -0.119254
     5  C   -0.161780
     6  C   -0.122160
     7  C   -0.166403
     8  C   -0.082790
     9  C   -0.147748
    10  C   -0.120469
    11  C   -0.121062
    12  C   -0.118269
    13  C   -0.158106
    14  C   -0.108448
    15  C   -0.157928
    16  C   -0.125568
    17  C   -0.153330
    18  C   -0.115396
    19  C   -0.171571
    20  H    0.115907
    21  H    0.116798
    22  H    0.112838
    23  H    0.121418
    24  H    0.141452
    25  H    0.178517
    26  H    0.148146
    27  H    0.147505
    28  H    0.143892
    29  H    0.149445
    30  H    0.128709
    31  H    0.123838
    32  H    0.120207
    33  H    0.126119
    34  H    0.130789
 Sum of Mulliken charges =  -0.00000

 Dipole moment (field-independent basis, Debye):
    X=             -2.2242    Y=             -3.0391    Z=             -0.1980  Tot=              3.7713
 Quadrupole moment (field-independent basis, Debye-Ang):
   XX=           -118.9407   YY=           -108.1372   ZZ=           -110.6534
   XY=              4.4649   XZ=             -0.0033   YZ=             -1.3673

 Summary of Natural Population Analysis:

                                       Natural Population
                Natural  -----------------------------------------------
    Atom  No    Charge         Core      Valence    Rydberg      Total
 -----------------------------------------------------------------------
      P    1    1.24228      9.99750     3.70998    0.05025    13.75772
      C    2   -0.47760      1.99887     4.45255    0.02618     6.47760
      C    3   -0.23912      1.99902     4.22377    0.01633     6.23912
      C    4   -0.23801      1.99910     4.22417    0.01474     6.23801
      C    5   -0.28289      1.99909     4.26747    0.01633     6.28289
      C    6   -0.23579      1.99909     4.22204    0.01466     6.23579
      C    7   -0.24235      1.99899     4.22567    0.01770     6.24235
      C    8   -0.37931      1.99891     4.35534    0.02506     6.37931
      C    9   -0.20320      1.99900     4.18813    0.01607     6.20320
      C   10   -0.23089      1.99909     4.21772    0.01408     6.23089
      C   11   -0.19645      1.99909     4.18365    0.01371     6.19645
      C   12   -0.23396      1.99910     4.22067    0.01419     6.23396
      C   13   -0.20457      1.99902     4.19039    0.01516     6.20457
      C   14   -0.43963      1.99887     4.41649    0.02427     6.43963
      C   15   -0.21056      1.99901     4.19581    0.01574     6.21056
      C   16   -0.24870      1.99910     4.23457    0.01504     6.24870
      C   17   -0.26521      1.99909     4.25033    0.01578     6.26521
      C   18   -0.22332      1.99909     4.20996    0.01427     6.22332
      C   19   -0.25754      1.99899     4.24094    0.01762     6.25754
      H   20    0.22442      0.00000     0.77462    0.00096     0.77558
      H   21    0.23077      0.00000     0.76828    0.00095     0.76923
      H   22    0.22766      0.00000     0.77143    0.00091     0.77234
      H   23    0.23394      0.00000     0.76518    0.00088     0.76606
      H   24    0.24190      0.00000     0.75653    0.00158     0.75810
      H   25    0.26284      0.00000     0.73595    0.00121     0.73716
      H   26    0.24626      0.00000     0.75288    0.00086     0.75374
      H   27    0.24264      0.00000     0.75654    0.00082     0.75736
      H   28    0.24356      0.00000     0.75554    0.00090     0.75644
      H   29    0.24223      0.00000     0.75658    0.00119     0.75777
      H   30    0.23249      0.00000     0.76634    0.00117     0.76751
      H   31    0.23473      0.00000     0.76439    0.00088     0.76527
      H   32    0.23095      0.00000     0.76816    0.00089     0.76905
      H   33    0.23597      0.00000     0.76315    0.00088     0.76403
      H   34    0.23644      0.00000     0.76222    0.00134     0.76356
 =======================================================================
   * Total *   -0.00000     45.98001    91.64741    0.37258   138.00000

 Normal termination of Gaussian 16 at Sun Dec  8 18:52:27 2019.
