 Gaussian 16, Revision A.03,

 ----------------------------------
 # opt=CalcAll B3LYP/6-31G* scf=xqc
 ----------------------------------

 -------------------
 Title Card Required
 -------------------
 Symbolic Z-matrix:
 Charge =  0 Multiplicity = 1

 SCF Done:  E(RB3LYP) =  -814.852418815     A.U. after   13 cycles
 SCF Done:  E(RB3LYP) =  -814.855291912     A.U. after   11 cycles
 SCF Done:  E(RB3LYP) =  -814.863232520     A.U. after   13 cycles
 SCF Done:  E(RB3LYP) =  -814.868770435     A.U. after   11 cycles
 SCF Done:  E(RB3LYP) =  -814.874122129     A.U. after   11 cycles
 SCF Done:  E(RB3LYP) =  -814.875526931     A.U. after   11 cycles
 SCF Done:  E(RB3LYP) =  -814.875630224     A.U. after    9 cycles
 SCF Done:  E(RB3LYP) =  -814.875694754     A.U. after    9 cycles
 SCF Done:  E(RB3LYP) =  -814.875690496     A.U. after    7 cycles
 SCF Done:  E(RB3LYP) =  -814.875641786     A.U. after    8 cycles
 SCF Done:  E(RB3LYP) =  -814.875683240     A.U. after    9 cycles
 SCF Done:  E(RB3LYP) =  -814.875666550     A.U. after    7 cycles
 Optimization completed.
    -- Stationary point found.
 Normal termination of Gaussian 16 at Thu Dec 26 12:51:40 2019.

 ----------------------------------------------------------------------
 # freq B3LYP/6-31G* scf=xqc volume NMR pop=NPA density=current Geom=Al
 lCheck Guess=Read
 ----------------------------------------------------------------------

 Structure from the checkpoint file:  "suzuki_ligand_1_conf12.chk"
 -------------------
 Title Card Required
 -------------------
 Charge =  0 Multiplicity = 1

 SCF Done:  E(RB3LYP) =  -814.875666550     A.U. after    1 cycles

      1  C    Isotropic =   156.1411   Anisotropy =    33.3129

      2  C    Isotropic =   148.5672   Anisotropy =    23.8740

      3  P    Isotropic =   294.3981   Anisotropy =    61.8010

      4  C    Isotropic =   148.5395   Anisotropy =    23.8890

      5  C    Isotropic =   162.3946   Anisotropy =    29.6238

      6  C    Isotropic =   156.1377   Anisotropy =    33.3113

      7  C    Isotropic =   155.4785   Anisotropy =    42.3691

      8  C    Isotropic =   148.5547   Anisotropy =    23.8973

      9  C    Isotropic =   156.1324   Anisotropy =    33.3082

     10  C    Isotropic =   155.4893   Anisotropy =    42.3241

     11  C    Isotropic =   162.3983   Anisotropy =    29.6444

     12  C    Isotropic =   162.3979   Anisotropy =    29.6595

     13  C    Isotropic =   155.4826   Anisotropy =    42.3397

     14  H    Isotropic =    30.5853   Anisotropy =     6.0361

     15  H    Isotropic =    31.3190   Anisotropy =     8.3557

     16  H    Isotropic =    30.7331   Anisotropy =     6.8854

     17  H    Isotropic =    30.4084   Anisotropy =     5.2879

     18  H    Isotropic =    30.4619   Anisotropy =     5.8231

     19  H    Isotropic =    31.2131   Anisotropy =     9.1893

     20  H    Isotropic =    30.5818   Anisotropy =     6.0379

     21  H    Isotropic =    31.3154   Anisotropy =     8.3615

     22  H    Isotropic =    30.7290   Anisotropy =     6.8862

     23  H    Isotropic =    30.5064   Anisotropy =     6.1753

     24  H    Isotropic =    30.7256   Anisotropy =     7.7571

     25  H    Isotropic =    31.4632   Anisotropy =     9.0493

     26  H    Isotropic =    30.7307   Anisotropy =     6.8824

     27  H    Isotropic =    30.5829   Anisotropy =     6.0418

     28  H    Isotropic =    31.3176   Anisotropy =     8.3566

     29  H    Isotropic =    30.7277   Anisotropy =     7.7504

     30  H    Isotropic =    31.4647   Anisotropy =     9.0480

     31  H    Isotropic =    30.5031   Anisotropy =     6.1838

     32  H    Isotropic =    30.4055   Anisotropy =     5.2880

     33  H    Isotropic =    30.4613   Anisotropy =     5.8315

     34  H    Isotropic =    31.2135   Anisotropy =     9.1915

     35  H    Isotropic =    30.4062   Anisotropy =     5.2849

     36  H    Isotropic =    30.4615   Anisotropy =     5.8375

     37  H    Isotropic =    31.2144   Anisotropy =     9.1891

     38  H    Isotropic =    30.7268   Anisotropy =     7.7570

     39  H    Isotropic =    31.4634   Anisotropy =     9.0474

     40  H    Isotropic =    30.5025   Anisotropy =     6.1831

  Exact polarizability: 164.560  -0.002 164.559  -0.004   0.002 129.186
 Approx polarizability: 231.865  -0.004 231.862  -0.004   0.006 200.447

                      1                      2                      3
                      A                      A                      A
 Frequencies --     94.1478                95.8674               131.6562
 Red. masses --      2.5806                 2.5971                 2.5115
 Frc consts  --      0.0135                 0.0141                 0.0256
 IR Inten    --      0.0123                 0.0127                 0.0016

                      4                      5                      6
                      A                      A                      A
 Frequencies --    173.8261               186.7360               188.0705
 Red. masses --      2.2609                 2.3066                 2.3861
 Frc consts  --      0.0402                 0.0474                 0.0497
 IR Inten    --      0.1194                 0.0010                 0.0013

                      7                      8                      9
                      A                      A                      A
 Frequencies --    209.5667               209.9268               213.5344
 Red. masses --      1.4463                 1.4740                 2.1268
 Frc consts  --      0.0374                 0.0383                 0.0571
 IR Inten    --      0.0079                 0.0071                 0.0170

                     10                     11                     12
                      A                      A                      A
 Frequencies --    248.7309               249.7618               250.1816
 Red. masses --      1.2635                 1.2889                 1.3829
 Frc consts  --      0.0461                 0.0474                 0.0510
 IR Inten    --      0.0890                 0.0852                 0.0771

                     13                     14                     15
                      A                      A                      A
 Frequencies --    269.5977               271.5658               273.7076
 Red. masses --      2.3941                 2.3862                 1.5618
 Frc consts  --      0.1025                 0.1037                 0.0689
 IR Inten    --      0.3389                 0.3392                 0.0047

                     16                     17                     18
                      A                      A                      A
 Frequencies --    285.1026               286.5474               296.7558
 Red. masses --      1.7772                 1.6989                 1.6584
 Frc consts  --      0.0851                 0.0822                 0.0860
 IR Inten    --      0.0163                 0.0275                 0.0049

                     19                     20                     21
                      A                      A                      A
 Frequencies --    339.8385               353.6092               355.2947
 Red. masses --      1.1108                 1.1237                 1.1322
 Frc consts  --      0.0756                 0.0828                 0.0842
 IR Inten    --      0.1423                 0.2474                 0.2534

                     22                     23                     24
                      A                      A                      A
 Frequencies --    363.7841               378.9272               379.0713
 Red. masses --      2.3204                 2.2700                 2.3207
 Frc consts  --      0.1809                 0.1920                 0.1965
 IR Inten    --      0.0005                 0.2269                 0.2332

                     25                     26                     27
                      A                      A                      A
 Frequencies --    415.0519               415.1495               415.4939
 Red. masses --      2.1737                 2.2372                 2.2311
 Frc consts  --      0.2206                 0.2272                 0.2269
 IR Inten    --      0.0419                 0.3488                 0.3008

                     28                     29                     30
                      A                      A                      A
 Frequencies --    468.8522               469.4347               489.9513
 Red. masses --      2.7900                 2.8083                 3.5370
 Frc consts  --      0.3614                 0.3646                 0.5003
 IR Inten    --      3.8190                 3.8669                 0.9424

                     31                     32                     33
                      A                      A                      A
 Frequencies --    552.5142               576.8552               577.5023
 Red. masses --      2.4851                 3.4155                 3.4087
 Frc consts  --      0.4470                 0.6696                 0.6698
 IR Inten    --      0.1035                 3.7841                 3.7811

                     34                     35                     36
                      A                      A                      A
 Frequencies --    812.9908               813.8901               815.2914
 Red. masses --      2.9751                 2.9768                 2.9838
 Frc consts  --      1.1586                 1.1618                 1.1686
 IR Inten    --      9.7293                 9.0394                 0.8702

                     37                     38                     39
                      A                      A                      A
 Frequencies --    937.8525               940.1312               940.4419
 Red. masses --      1.9682                 1.8891                 1.8954
 Frc consts  --      1.0200                 0.9837                 0.9877
 IR Inten    --      0.9117                 2.4388                 2.4127

                     40                     41                     42
                      A                      A                      A
 Frequencies --    947.6957               949.6299               949.8944
 Red. masses --      1.7613                 1.7661                 1.7643
 Frc consts  --      0.9320                 0.9383                 0.9379
 IR Inten    --      0.9129                 1.1654                 1.1963

                     43                     44                     45
                      A                      A                      A
 Frequencies --    973.2501               973.4637               978.7308
 Red. masses --      1.1965                 1.1949                 1.1837
 Frc consts  --      0.6677                 0.6671                 0.6681
 IR Inten    --      0.1498                 0.1486                 0.0015

                     46                     47                     48
                      A                      A                      A
 Frequencies --   1039.0874              1046.5009              1047.3034
 Red. masses --      1.3551                 1.3659                 1.3650
 Frc consts  --      0.8620                 0.8813                 0.8821
 IR Inten    --      0.0089                 0.1820                 0.1999

                     49                     50                     51
                      A                      A                      A
 Frequencies --   1056.1616              1056.4045              1057.6584
 Red. masses --      1.3568                 1.3596                 1.3690
 Frc consts  --      0.8917                 0.8940                 0.9023
 IR Inten    --      2.9802                 2.9596                 2.1460

                     52                     53                     54
                      A                      A                      A
 Frequencies --   1206.1953              1206.4422              1213.0358
 Red. masses --      1.9581                 1.9611                 2.1981
 Frc consts  --      1.6785                 1.6817                 1.9057
 IR Inten    --     37.4313                37.5397                 0.0268

                     55                     56                     57
                      A                      A                      A
 Frequencies --   1218.3734              1223.0088              1223.7618
 Red. masses --      1.9755                 2.3807                 2.3759
 Frc consts  --      1.7278                 2.0980                 2.0964
 IR Inten    --      0.3794                 1.3159                 1.3542

                     58                     59                     60
                      A                      A                      A
 Frequencies --   1238.8440              1238.9279              1240.2424
 Red. masses --      2.5771                 2.5793                 2.6312
 Frc consts  --      2.3303                 2.3326                 2.3846
 IR Inten    --      0.8927                 0.8848                 2.1219

                     61                     62                     63
                      A                      A                      A
 Frequencies --   1421.5801              1424.5231              1425.0677
 Red. masses --      1.2083                 1.2077                 1.2062
 Frc consts  --      1.4387                 1.4439                 1.4433
 IR Inten    --      0.3658                 1.9272                 1.9591

                     64                     65                     66
                      A                      A                      A
 Frequencies --   1430.3635              1430.4854              1431.4358
 Red. masses --      1.2054                 1.2053                 1.2036
 Frc consts  --      1.4530                 1.4532                 1.4530
 IR Inten    --      0.4178                 0.5520                15.6734

                     67                     68                     69
                      A                      A                      A
 Frequencies --   1456.2576              1456.6303              1466.5290
 Red. masses --      1.2037                 1.2033                 1.2001
 Frc consts  --      1.5039                 1.5043                 1.5207
 IR Inten    --      8.4680                 8.5267                 0.0020

                     70                     71                     72
                      A                      A                      A
 Frequencies --   1507.2787              1507.4510              1511.8596
 Red. masses --      1.0503                 1.0502                 1.0506
 Frc consts  --      1.4058                 1.4061                 1.4149
 IR Inten    --      1.0120                 1.0675                 0.0074

                     73                     74                     75
                      A                      A                      A
 Frequencies --   1516.2648              1518.2890              1519.3263
 Red. masses --      1.0451                 1.0483                 1.0470
 Frc consts  --      1.4156                 1.4238                 1.4239
 IR Inten    --      0.2380                 2.4192                 0.8644

                     76                     77                     78
                      A                      A                      A
 Frequencies --   1519.6710              1525.3201              1525.9081
 Red. masses --      1.0470                 1.0486                 1.0487
 Frc consts  --      1.4246                 1.4374                 1.4387
 IR Inten    --      0.9897                 0.0747                 0.0769

                     79                     80                     81
                      A                      A                      A
 Frequencies --   1533.3847              1536.2495              1536.5535
 Red. masses --      1.0481                 1.0480                 1.0481
 Frc consts  --      1.4520                 1.4573                 1.4579
 IR Inten    --      3.7980                 1.2600                 1.1858

                     82                     83                     84
                      A                      A                      A
 Frequencies --   1544.4771              1545.1248              1546.7421
 Red. masses --      1.0489                 1.0490                 1.0534
 Frc consts  --      1.4742                 1.4755                 1.4849
 IR Inten    --      6.1223                 5.5764                 6.2230

                     85                     86                     87
                      A                      A                      A
 Frequencies --   1556.8807              1557.1487              1557.2844
 Red. masses --      1.0498                 1.0498                 1.0493
 Frc consts  --      1.4993                 1.4997                 1.4993
 IR Inten    --      8.4866                 8.4981                 7.8284

                     88                     89                     90
                      A                      A                      A
 Frequencies --   3029.7951              3030.0335              3030.3593
 Red. masses --      1.0515                 1.0518                 1.0524
 Frc consts  --      5.6869                 5.6895                 5.6941
 IR Inten    --     12.7660                11.7751                53.4151

                     91                     92                     93
                      A                      A                      A
 Frequencies --   3034.9539              3035.4069              3035.5852
 Red. masses --      1.0463                 1.0475                 1.0474
 Frc consts  --      5.6785                 5.6864                 5.6868
 IR Inten    --      2.2682                15.0027                15.1448

                     94                     95                     96
                      A                      A                      A
 Frequencies --   3041.8973              3041.9808              3045.4883
 Red. masses --      1.0459                 1.0459                 1.0474
 Frc consts  --      5.7020                 5.7024                 5.7239
 IR Inten    --    142.4589               142.9097                 0.9380

                     97                     98                     99
                      A                      A                      A
 Frequencies --   3098.9767              3100.8576              3100.9112
 Red. masses --      1.0936                 1.0936                 1.0937
 Frc consts  --      6.1880                 6.1956                 6.1960
 IR Inten    --      1.9845                31.8501                31.0484

                    100                    101                    102
                      A                      A                      A
 Frequencies --   3106.8572              3107.1169              3108.6711
 Red. masses --      1.0904                 1.0913                 1.0928
 Frc consts  --      6.2015                 6.2077                 6.2222
 IR Inten    --      5.8218                 6.9059                57.9912

                    103                    104                    105
                      A                      A                      A
 Frequencies --   3110.7052              3111.6526              3117.4512
 Red. masses --      1.0857                 1.0843                 1.0818
 Frc consts  --      6.1898                 6.1857                 6.1945
 IR Inten    --     57.8428                55.3240                 1.6306

                    106                    107                    108
                      A                      A                      A
 Frequencies --   3142.7555              3143.0333              3143.7371
 Red. masses --      1.1013                 1.1012                 1.1009
 Frc consts  --      6.4086                 6.4095                 6.4107
 IR Inten    --     26.1163                18.9588                21.5085

                    109                    110                    111
                      A                      A                      A
 Frequencies --   3148.7545              3153.2344              3154.1671
 Red. masses --      1.0997                 1.0994                 1.0994
 Frc consts  --      6.4240                 6.4402                 6.4440
 IR Inten    --     15.1637                22.4009                22.2644

                    112                    113                    114
                      A                      A                      A
 Frequencies --   3173.3614              3174.0314              3174.5066
 Red. masses --      1.0936                 1.0936                 1.0935
 Frc consts  --      6.4888                 6.4911                 6.4924
 IR Inten    --     11.7687                21.8597                25.1073

 - Thermochemistry -
 -------------------
 Temperature   298.150 Kelvin.  Pressure   1.00000 Atm.
 Atom     1 has atomic number  6 and mass  12.00000

 Molecular mass:   202.18504 amu.
 Principal axes and moments of inertia in atomic units:
                           1         2         3
     Eigenvalues --  2558.469872558.621893857.68714
           X            0.99995   0.01042   0.00000
           Y           -0.01042   0.99995   0.00000
           Z           -0.00000  -0.00000   1.00000
 This molecule is an asymmetric top.
 Rotational symmetry number  1.
 Warning -- assumption of classical behavior for rotation
           may cause significant error
 Rotational temperatures (Kelvin)      0.03385     0.03385     0.02245
 Rotational constants (GHZ):           0.70540     0.70536     0.46783
 Zero-point vibrational energy     975173.0 (Joules/Mol)
                                  233.07194 (Kcal/Mol)
 Warning -- explicit consideration of  33 degrees of freedom as
           vibrations may cause significant error
 Vibrational temperatures:    135.46   137.93   189.42   250.10   268.67
          (Kelvin)            270.59   301.52   302.04   307.23   357.87
                              359.35   359.96   387.89   390.72   393.80
                              410.20   412.28   426.97   488.95   508.76
                              511.19   523.40   545.19   545.40   597.17
                              597.31   597.80   674.57   675.41   704.93
                              794.94   829.97   830.90  1169.71  1171.01
                             1173.02  1349.36  1352.64  1353.09  1363.52
                             1366.31  1366.69  1400.29  1400.60  1408.18
                             1495.01  1505.68  1506.84  1519.58  1519.93
                             1521.73  1735.45  1735.80  1745.29  1752.97
                             1759.64  1760.72  1782.42  1782.54  1784.43
                             2045.34  2049.57  2050.35  2057.97  2058.15
                             2059.52  2095.23  2095.77  2110.01  2168.64
                             2168.89  2175.23  2181.57  2184.48  2185.97
                             2186.47  2194.60  2195.44  2206.20  2210.32
                             2210.76  2222.16  2223.09  2225.42  2240.00
                             2240.39  2240.58  4359.20  4359.54  4360.01
                             4366.62  4367.27  4367.53  4376.61  4376.73
                             4381.78  4458.74  4461.44  4461.52  4470.07
                             4470.45  4472.68  4475.61  4476.97  4485.32
                             4521.72  4522.12  4523.14  4530.36  4536.80
                             4538.14  4565.76  4566.72  4567.41

 Zero-point correction=                           0.371424 (Hartree/Particle)
 Thermal correction to Energy=                    0.389260
 Thermal correction to Enthalpy=                  0.390204
 Thermal correction to Gibbs Free Energy=         0.330018
 Sum of electronic and zero-point Energies=           -814.504243
 Sum of electronic and thermal Energies=              -814.486406
 Sum of electronic and thermal Enthalpies=            -814.485462
 Sum of electronic and thermal Free Energies=         -814.545649

                     E (Thermal)             CV                S
                      KCal/Mol        Cal/Mol-Kelvin    Cal/Mol-Kelvin
 Total                  244.264             70.685            126.673
 Electronic               0.000              0.000              0.000
 Translational            0.889              2.981             41.817
 Rotational               0.889              2.981             31.602
 Vibrational            242.487             64.724             53.255
 Vibration     1          0.603              1.953              3.572
 Vibration     2          0.603              1.952              3.537
 Vibration     3          0.612              1.922              2.922
 Vibration     4          0.627              1.875              2.394
 Vibration     5          0.632              1.858              2.260
 Vibration     6          0.633              1.856              2.247
 Vibration     7          0.642              1.826              2.047
 Vibration     8          0.642              1.826              2.044
 Vibration     9          0.644              1.820              2.013
 Vibration    10          0.662              1.765              1.740
 Vibration    11          0.663              1.763              1.732
 Vibration    12          0.663              1.762              1.729
 Vibration    13          0.674              1.729              1.599
 Vibration    14          0.675              1.726              1.586
 Vibration    15          0.676              1.722              1.573
 Vibration    16          0.683              1.701              1.503
 Vibration    17          0.684              1.699              1.494
 Vibration    18          0.690              1.680              1.435
 Vibration    19          0.720              1.596              1.213
 Vibration    20          0.730              1.568              1.150
 Vibration    21          0.731              1.564              1.143
 Vibration    22          0.737              1.547              1.106
 Vibration    23          0.749              1.515              1.043
 Vibration    24          0.749              1.515              1.043
 Vibration    25          0.778              1.438              0.909
 Vibration    26          0.779              1.437              0.909
 Vibration    27          0.779              1.437              0.907
 Vibration    28          0.826              1.319              0.741
 Vibration    29          0.827              1.318              0.739
 Vibration    30          0.846              1.272              0.684
 Vibration    31          0.908              1.134              0.539
 Vibration    32          0.933              1.081              0.491
 Vibration    33          0.934              1.080              0.490

                           ! Non-Optimized Parameters !
 Normal termination of Gaussian 16 at Thu Dec 26 13:00:44 2019.
 Gaussian 16:  ES64L-G16RevA.03 25-Dec-2016

 ----------------------------------------------------------------------
 # TD(NStates=10, Root=1) B3LYP/6-31G* scf=xqc volume pop=NPA density=c
 urrent Geom=AllCheck Guess=Read
 ----------------------------------------------------------------------

 Structure from the checkpoint file:  "suzuki_ligand_1_conf13.chk"
 -------------------
 Title Card Required
 -------------------
 Charge =  0 Multiplicity = 1

                         Standard orientation:
 ---------------------------------------------------------------------
 Center     Atomic      Atomic             Coordinates (Angstroms)
 Number     Number       Type             X           Y           Z
 ---------------------------------------------------------------------
      1          6           0        2.762017   -0.567132   -0.220503
      2          6           0        1.730373    0.561752   -0.001848
      3         15           0       -0.000086   -0.000103   -0.710659
      4          6           0       -0.378705   -1.779476   -0.001658
      5          6           0       -0.037544   -2.047339    1.476926
      6          6           0       -1.872211   -2.108643   -0.219776
      7          6           0        0.393203   -2.782693   -0.894887
      8          6           0       -1.351883    1.217599   -0.001660
      9          6           0       -0.890253    2.675524   -0.220456
     10          6           0       -2.606446    1.050217   -0.895045
     11          6           0       -1.754539    1.057038    1.477033
     12          6           0        1.793199    0.991280    1.476773
     13          6           0        2.212721    1.731903   -0.895275
     14          1           0        2.612920   -1.418661    0.447216
     15          1           0        3.766185   -0.171238   -0.016566
     16          1           0        2.758068   -0.930121   -1.253872
     17          1           0       -0.568296   -1.373542    2.154970
     18          1           0        1.032221   -1.957707    1.682701
     19          1           0       -0.329177   -3.074489    1.740378
     20          1           0       -2.535098   -1.553317    0.447585
     21          1           0       -2.031369   -3.176087   -0.015079
     22          1           0       -2.184652   -1.924475   -1.253265
     23          1           0        1.476189   -2.713150   -0.789234
     24          1           0        0.148566   -2.638787   -1.952746
     25          1           0        0.104438   -3.806511   -0.619121
     26          1           0       -0.574240    2.853499   -1.253940
     27          1           0       -0.078121    2.972355    0.447011
     28          1           0       -1.735219    3.347135   -0.016375
     29          1           0       -2.359349    1.190848   -1.952777
     30          1           0       -3.349310    1.811528   -0.619023
     31          1           0       -3.086942    0.077107   -0.789983
     32          1           0       -0.905386    1.178522    2.155003
     33          1           0       -2.213718    0.086788    1.683435
     34          1           0       -2.496867    1.824602    1.740271
     35          1           0        1.474217    0.195572    2.155406
     36          1           0        1.182687    1.874208    1.683060
     37          1           0        2.829225    1.250450    1.739410
     38          1           0        2.210678    1.447843   -1.953067
     39          1           0        3.243589    1.994293   -0.619409
     40          1           0        1.610472    2.634713   -0.789843
 ---------------------------------------------------------------------

 SCF Done:  E(RB3LYP) =  -814.875666550     A.U. after    1 cycles

 Excitation energies and oscillator strengths:

 Excited State   1:      Singlet-A      6.2358 eV  198.83 nm  f=0.0711  <S**2>=0.000
      57 -> 58         0.69439
 This state for optimization and/or second-order correction.
 Total Energy, E(TD-HF/TD-DFT) =  -814.646506310
 Copying the excited state density for this state as the 1-particle RhoCI density.

 Excited State   2:      Singlet-A      6.2365 eV  198.80 nm  f=0.0711  <S**2>=0.000
      57 -> 59         0.69438

 Excited State   3:      Singlet-A      6.5415 eV  189.54 nm  f=0.0041  <S**2>=0.000
      57 -> 60         0.66016
      57 -> 61        -0.24819

 Excited State   4:      Singlet-A      6.7044 eV  184.93 nm  f=0.0145  <S**2>=0.000
      57 -> 60         0.25094
      57 -> 61         0.65832

 Excited State   5:      Singlet-A      7.6576 eV  161.91 nm  f=0.0029  <S**2>=0.000
      57 -> 62         0.70173

 Excited State   6:      Singlet-A      7.6585 eV  161.89 nm  f=0.0030  <S**2>=0.000
      57 -> 63         0.70172

 Excited State   7:      Singlet-A      7.9492 eV  155.97 nm  f=0.0129  <S**2>=0.000
      57 -> 64         0.69569

 Excited State   8:      Singlet-A      7.9677 eV  155.61 nm  f=0.0000  <S**2>=0.000
      55 -> 58         0.49357
      56 -> 59        -0.49326

 Excited State   9:      Singlet-A      8.0994 eV  153.08 nm  f=0.0069  <S**2>=0.000
      57 -> 65         0.69159

 Excited State  10:      Singlet-A      8.1004 eV  153.06 nm  f=0.0070  <S**2>=0.000
      57 -> 66         0.69135

 The electronic state is 1-A.
 Alpha  occ. eigenvalues --  -77.06235 -10.20235 -10.20234 -10.20233 -10.17324
 Alpha  occ. eigenvalues --  -10.17324 -10.17324 -10.17262 -10.17261 -10.17260
 Alpha  occ. eigenvalues --  -10.16832 -10.16832 -10.16831  -6.52878  -4.69132
 Alpha  occ. eigenvalues --   -4.69132  -4.68625  -0.81458  -0.79499  -0.79499
 Alpha  occ. eigenvalues --   -0.68811  -0.68335  -0.68334  -0.67765  -0.67763
 Alpha  occ. eigenvalues --   -0.66907  -0.61850  -0.54078  -0.54077  -0.50576
 Alpha  occ. eigenvalues --   -0.45576  -0.45574  -0.44300  -0.43808  -0.43806
 Alpha  occ. eigenvalues --   -0.42098  -0.41983  -0.41983  -0.40006  -0.38973
 Alpha  occ. eigenvalues --   -0.38395  -0.38394  -0.37482  -0.37481  -0.36992
 Alpha  occ. eigenvalues --   -0.36294  -0.35937  -0.35936  -0.33527  -0.33526
 Alpha  occ. eigenvalues --   -0.33465  -0.32384  -0.32382  -0.30763  -0.27383
 Alpha  occ. eigenvalues --   -0.27381  -0.20012
 Alpha virt. eigenvalues --    0.06186   0.06189   0.07096   0.07971   0.11088
 Alpha virt. eigenvalues --    0.11091   0.12290   0.12785   0.12789   0.14692
 Alpha virt. eigenvalues --    0.15085   0.15086   0.15262   0.15487   0.15488

 Mulliken charges:
               1
     1  C   -0.416808
     2  C   -0.047487
     3  P    0.307655
     4  C   -0.056074
     5  C   -0.460836
     6  C   -0.434438
     7  C   -0.430146
     8  C   -0.049479
     9  C   -0.460443
    10  C   -0.437485
    11  C   -0.458448
    12  C   -0.461996
    13  C   -0.457663
    14  H    0.140248
    15  H    0.123840
    16  H    0.133729
    17  H    0.158349
    18  H    0.157943
    19  H    0.159364
    20  H    0.147262
    21  H    0.119900
    22  H    0.150414
    23  H    0.155169
    24  H    0.149191
    25  H    0.117036
    26  H    0.141163
    27  H    0.149071
    28  H    0.137976
    29  H    0.133420
    30  H    0.133160
    31  H    0.145235
    32  H    0.145615
    33  H    0.147105
    34  H    0.143933
    35  H    0.147409
    36  H    0.155083
    37  H    0.148304
    38  H    0.143180
    39  H    0.130795
    40  H    0.149756
 Sum of Mulliken charges =  -0.00000

 Dipole moment (field-independent basis, Debye):
    X=             -0.1197    Y=             -0.0843    Z=              1.1321  Tot=              1.1415
 Quadrupole moment (field-independent basis, Debye-Ang):
   XX=            -96.6614   YY=            -95.4791   ZZ=            -95.7703
   XY=              0.1304   XZ=              0.5180   YZ=             -0.8287

 Summary of Natural Population Analysis:

                                       Natural Population
                Natural  -----------------------------------------------
    Atom  No    Charge         Core      Valence    Rydberg      Total
 -----------------------------------------------------------------------
      C    1   -0.67936      1.99936     4.66760    0.01241     6.67936
      C    2   -0.35338      1.99911     4.33092    0.02335     6.35338
      P    3    0.99468      9.99775     3.92488    0.08269    14.00532
      C    4   -0.31986      1.99910     4.29758    0.02318     6.31986
      C    5   -0.67562      1.99931     4.66428    0.01203     6.67562
      C    6   -0.68020      1.99936     4.66843    0.01241     6.68020
      C    7   -0.67534      1.99937     4.66244    0.01353     6.67534
      C    8   -0.40246      1.99912     4.37842    0.02492     6.40246
      C    9   -0.68217      1.99937     4.67093    0.01187     6.68217
      C   10   -0.68281      1.99937     4.67177    0.01167     6.68281
      C   11   -0.67422      1.99933     4.66333    0.01155     6.67422
      C   12   -0.67654      1.99932     4.66474    0.01248     6.67654
      C   13   -0.68061      1.99937     4.66896    0.01228     6.68061
      H   14    0.22019      0.00000     0.77848    0.00133     0.77981
      H   15    0.22255      0.00000     0.77451    0.00294     0.77745
      H   16    0.23141      0.00000     0.76251    0.00608     0.76859
      H   17    0.23743      0.00000     0.76163    0.00094     0.76257
      H   18    0.23126      0.00000     0.76694    0.00180     0.76874
      H   19    0.24784      0.00000     0.75092    0.00124     0.75216
      H   20    0.22412      0.00000     0.77428    0.00160     0.77588
      H   21    0.21481      0.00000     0.78047    0.00472     0.78519
      H   22    0.23692      0.00000     0.76154    0.00154     0.76308
      H   23    0.23833      0.00000     0.76050    0.00118     0.76167
      H   24    0.23659      0.00000     0.76256    0.00085     0.76341
      H   25    0.21291      0.00000     0.78313    0.00396     0.78709
      H   26    0.22622      0.00000     0.77087    0.00291     0.77378
      H   27    0.22423      0.00000     0.77480    0.00096     0.77577
      H   28    0.23152      0.00000     0.76657    0.00190     0.76848
      H   29    0.22728      0.00000     0.76958    0.00314     0.77272
      H   30    0.22872      0.00000     0.76975    0.00153     0.77128
      H   31    0.23105      0.00000     0.76724    0.00171     0.76895
      H   32    0.22877      0.00000     0.76968    0.00155     0.77123
      H   33    0.22299      0.00000     0.77545    0.00156     0.77701
      H   34    0.23353      0.00000     0.76405    0.00241     0.76647
      H   35    0.22901      0.00000     0.76934    0.00166     0.77099
      H   36    0.22928      0.00000     0.76975    0.00097     0.77072
      H   37    0.23775      0.00000     0.75999    0.00225     0.76225
      H   38    0.22862      0.00000     0.76858    0.00279     0.77138
      H   39    0.22260      0.00000     0.77443    0.00298     0.77740
      H   40    0.23195      0.00000     0.76704    0.00102     0.76805
 =======================================================================
   * Total *    0.00000     33.98925    79.68886    0.32189   114.00000

 Normal termination of Gaussian 16 at Thu Dec 26 13:11:10 2019.
